
     Program PWSCF v.6.5 starts on 31May2021 at 20:17:17 

     This program is part of the open-source Quantum ESPRESSO suite
     for quantum simulation of materials; please cite
         "P. Giannozzi et al., J. Phys.:Condens. Matter 21 395502 (2009);
         "P. Giannozzi et al., J. Phys.:Condens. Matter 29 465901 (2017);
          URL http://www.quantum-espresso.org", 
     in publications or presentations arising from this work. More details at
     http://www.quantum-espresso.org/quote

     Parallel version (MPI), running on    12 processors

     MPI processes distributed on     1 nodes
     R & G space division:  proc/nbgrp/npool/nimage =      12
     Waiting for input...
     Reading input from standard input

     Current dimensions of program PWSCF are:
     Max number of different atomic species (ntypx) = 10
     Max number of k-points (npk) =  40000
     Max angular momentum in pseudopotentials (lmaxx) =  3
     Message from routine cell_base_init:
     DEPRECATED: use true lattice parameter, not A to a.u. conversion factor
               file Cd.pbe-n-rrkjus_psl.1.0.0.UPF: wavefunction(s)  4D renormalized

     Subspace diagonalization in iterative solution of the eigenvalue problem:
     a serial algorithm will be used

 
     Parallelization info
     --------------------
     sticks:   dense  smooth     PW     G-vecs:    dense   smooth      PW
     Min          90      90     26                 4327     4327     664
     Max          91      91     27                 4331     4331     669
     Sum        1081    1081    313                51943    51943    7983
 


     bravais-lattice index     =            0
     lattice parameter (alat)  =       1.8900  a.u.
     unit-cell volume          =    1089.4295 (a.u.)^3
     number of atoms/cell      =            4
     number of atomic types    =            2
     number of electrons       =        56.00
     number of Kohn-Sham states=           40
     kinetic-energy cutoff     =      50.0000  Ry
     charge density cutoff     =     200.0000  Ry
     convergence threshold     =      1.0E-05
     mixing beta               =       0.4500
     number of iterations used =            8  plain     mixing
     Exchange-correlation= PBE
                           (   1   4   3   4   0   0   0)
     nstep                     =           50


     celldm(1)=   1.890000  celldm(2)=   0.000000  celldm(3)=   0.000000
     celldm(4)=   0.000000  celldm(5)=   0.000000  celldm(6)=   0.000000

     crystal axes: (cart. coord. in units of alat)
               a(1) = (   4.716987  -0.015513  -0.002401 )  
               a(2) = (  -2.371927   4.062830  -0.000274 )  
               a(3) = (  -0.002553  -0.001388   8.436361 )  

     reciprocal axes: (cart. coord. in units 2 pi/alat)
               b(1) = (  0.212408  0.124006  0.000085 )  
               b(2) = (  0.000811  0.246607  0.000041 )  
               b(3) = (  0.000060  0.000043  0.118535 )  


     PseudoPot. # 1 for Cd read from file:
     PP/Cd.pbe-n-rrkjus_psl.1.0.0.UPF
     MD5 check sum: a744746c89d2344a134ead0d8ab94e7a
     Pseudo is Ultrasoft + core correction, Zval = 12.0
     Generated using "atomic" code by A. Dal Corso v.6.3
     Using radial grid of 1239 points,  6 beta functions with: 
                l(1) =   0
                l(2) =   0
                l(3) =   1
                l(4) =   1
                l(5) =   2
                l(6) =   2
     Q(r) pseudized with 0 coefficients 


     PseudoPot. # 2 for Se read from file:
     PP/Se.pbe-dn-rrkjus_psl.1.0.0.UPF
     MD5 check sum: 497c2ee764913186385bad8d0f9c7a86
     Pseudo is Ultrasoft + core correction, Zval = 16.0
     Generated using "atomic" code by A. Dal Corso v.6.3
     Using radial grid of 1211 points,  6 beta functions with: 
                l(1) =   0
                l(2) =   0
                l(3) =   1
                l(4) =   1
                l(5) =   2
                l(6) =   2
     Q(r) pseudized with 0 coefficients 


     atomic species   valence    mass     pseudopotential
        Cd            12.00   121.41100     Cd( 1.00)
        Se            16.00    78.96000     Se( 1.00)

     Starting magnetic structure 
     atomic species   magnetization
        Cd           0.100
        Se           0.000

     No symmetry found



   Cartesian axes

     site n.     atom                  positions (alat units)
         1           Cd  tau(   1) = (   0.0061211   2.6804798   8.7946236  )
         2           Cd  tau(   2) = (   2.3348843   1.3655020   4.5764897  )
         3           Se  tau(   3) = (  -0.0095675   2.7019777   2.8885284  )
         4           Se  tau(   4) = (   2.3516108   1.3428293   7.1037302  )

     number of k points=    14  Gaussian smearing, width (Ry)=  0.0050
                       cart. coord. in units 2pi/alat
        k(    1) = (   0.0000000   0.0000000   0.0000000), wk =   0.0370370
        k(    2) = (   0.0000202   0.0000144   0.0395115), wk =   0.0740741
        k(    3) = (   0.0002703   0.0822025   0.0000136), wk =   0.0740741
        k(    4) = (   0.0002905   0.0822169   0.0395251), wk =   0.0740741
        k(    5) = (   0.0002502   0.0821880  -0.0394979), wk =   0.0740741
        k(    6) = (   0.0708025   0.0413353   0.0000282), wk =   0.0740741
        k(    7) = (   0.0708227   0.0413498   0.0395397), wk =   0.0740741
        k(    8) = (   0.0707824   0.0413209  -0.0394833), wk =   0.0740741
        k(    9) = (   0.0710729   0.1235378   0.0000418), wk =   0.0740741
        k(   10) = (   0.0710930   0.1235522   0.0395533), wk =   0.0740741
        k(   11) = (   0.0710527   0.1235234  -0.0394697), wk =   0.0740741
        k(   12) = (   0.0705322  -0.0408671   0.0000146), wk =   0.0740741
        k(   13) = (   0.0705524  -0.0408527   0.0395261), wk =   0.0740741
        k(   14) = (   0.0705120  -0.0408815  -0.0394969), wk =   0.0740741

     Dense  grid:    51943 G-vectors     FFT dimensions: (  45,  45,  72)

     Estimated max dynamical RAM per process >      28.47 MB

     Estimated total dynamical RAM >     341.61 MB
     Generating pointlists ...
     new r_m :   1.0426 (alat units)  1.9704 (a.u.) for type    1
     new r_m :   1.0426 (alat units)  1.9704 (a.u.) for type    2

     Initial potential from superposition of free atoms

     starting charge   55.99008, renormalised to   56.00000
     Starting wfcs are   36 randomized atomic wfcs +    4 random wfcs

     total cpu time spent up to now is       26.1 secs

     Self-consistent Calculation

     iteration #  1     ecut=    50.00 Ry     beta= 0.45
     Davidson diagonalization with overlap
     ethr =  1.00E-02,  avg # of iterations =  6.4

     Threshold (ethr) on eigenvalues was too large:
     Diagonalizing with lowered threshold

     Davidson diagonalization with overlap
     ethr =  3.29E-04,  avg # of iterations =  2.4

     total cpu time spent up to now is       82.6 secs

     total energy              =    -717.67646344 Ry
     Harris-Foulkes estimate   =    -717.72301244 Ry
     estimated scf accuracy    <       0.18409399 Ry

     total magnetization       =     0.06 Bohr mag/cell
     absolute magnetization    =     0.18 Bohr mag/cell

     iteration #  2     ecut=    50.00 Ry     beta= 0.45
     Davidson diagonalization with overlap
     ethr =  3.29E-04,  avg # of iterations =  2.5

     total cpu time spent up to now is      106.1 secs

     total energy              =    -717.70386195 Ry
     Harris-Foulkes estimate   =    -717.70032027 Ry
     estimated scf accuracy    <       0.02225083 Ry

     total magnetization       =     0.01 Bohr mag/cell
     absolute magnetization    =     0.11 Bohr mag/cell

     iteration #  3     ecut=    50.00 Ry     beta= 0.45
     Davidson diagonalization with overlap
     ethr =  3.97E-05,  avg # of iterations =  5.2

     total cpu time spent up to now is      136.0 secs

     total energy              =    -717.70944526 Ry
     Harris-Foulkes estimate   =    -717.70801753 Ry
     estimated scf accuracy    <       0.00562598 Ry

     total magnetization       =    -0.00 Bohr mag/cell
     absolute magnetization    =     0.07 Bohr mag/cell

     iteration #  4     ecut=    50.00 Ry     beta= 0.45
     Davidson diagonalization with overlap
     ethr =  1.00E-05,  avg # of iterations =  2.1

     total cpu time spent up to now is      158.6 secs

     total energy              =    -717.71050721 Ry
     Harris-Foulkes estimate   =    -717.70983840 Ry
     estimated scf accuracy    <       0.00085515 Ry

     total magnetization       =    -0.01 Bohr mag/cell
     absolute magnetization    =     0.05 Bohr mag/cell

     iteration #  5     ecut=    50.00 Ry     beta= 0.45
     Davidson diagonalization with overlap
     c_bands:  1 eigenvalues not converged
     ethr =  1.53E-06,  avg # of iterations =  3.7

     total cpu time spent up to now is      186.0 secs

     total energy              =    -717.71060396 Ry
     Harris-Foulkes estimate   =    -717.71061914 Ry
     estimated scf accuracy    <       0.00007779 Ry

     total magnetization       =    -0.01 Bohr mag/cell
     absolute magnetization    =     0.02 Bohr mag/cell

     iteration #  6     ecut=    50.00 Ry     beta= 0.45
     Davidson diagonalization with overlap
     ethr =  1.39E-07,  avg # of iterations =  2.9
 
     Magnetic moment per site:
     atom:    1    charge:    9.6031    magn:    0.0003    constr:    0.0000
     atom:    2    charge:    9.6025    magn:    0.0003    constr:    0.0000
     atom:    3    charge:   13.6943    magn:   -0.0031    constr:    0.0000
     atom:    4    charge:   13.6934    magn:   -0.0031    constr:    0.0000

     total cpu time spent up to now is      212.3 secs

     End of self-consistent calculation

 ------ SPIN UP ------------


          k = 0.0000 0.0000 0.0000 (  6451 PWs)   bands (ev):

   -43.8772 -43.8712 -43.8487 -43.8471 -43.8424 -43.8410 -43.7733 -43.7729
   -43.7671 -43.7667  -9.0032  -8.8340  -5.2473  -5.1988  -5.1938  -5.1593
    -5.1558  -5.1464  -5.1437  -5.1385  -5.1363  -5.0883  -1.2816   1.4335
     2.1526   2.1747   2.2202   2.6323   2.6520   5.1337   8.1236   8.1694
     8.2469   8.6253   9.2536   9.2626  10.4041  11.1386  11.2616  12.2971

          k = 0.0000 0.0000 0.0395 (  6487 PWs)   bands (ev):

   -43.8771 -43.8710 -43.8490 -43.8473 -43.8428 -43.8412 -43.7734 -43.7732
   -43.7672 -43.7670  -8.9619  -8.8772  -5.2178  -5.1899  -5.1861  -5.1691
    -5.1667  -5.1461  -5.1431  -5.1390  -5.1367  -5.1364  -0.8570   0.2411
     2.2747   2.3197   2.5064   2.5353   3.4704   4.7309   7.9452   8.1350
     8.3674   8.3951   8.9013   8.9163  11.1364  11.5866  11.7121  12.1974

          k = 0.0003 0.0822 0.0000 (  6500 PWs)   bands (ev):

   -43.8772 -43.8711 -43.8489 -43.8473 -43.8427 -43.8412 -43.7735 -43.7732
   -43.7673 -43.7670  -8.8959  -8.7977  -5.2849  -5.2283  -5.2044  -5.1710
    -5.1490  -5.1392  -5.1281  -5.1177  -5.0495  -4.9855  -0.7156   0.5835
     1.0052   1.3064   1.8057   2.4802   4.1249   5.5999   6.2895   7.3680
     7.6594   8.9621   9.6234   9.8195  10.2683  11.2009  11.5225  12.6363

          k = 0.0003 0.0822 0.0395 (  6503 PWs)   bands (ev):

   -43.8773 -43.8712 -43.8489 -43.8472 -43.8427 -43.8411 -43.7735 -43.7732
   -43.7673 -43.7670  -8.8714  -8.8223  -5.2678  -5.2405  -5.1899  -5.1672
    -5.1572  -5.1521  -5.1263  -5.1164  -5.0400  -5.0096  -0.5106   0.0482
     1.2386   1.5656   1.9540   2.2878   4.1256   4.9611   6.8144   7.2749
     8.1261   8.9672   9.1683   9.2266  10.6688  11.3113  12.0360  12.8595

          k = 0.0003 0.0822-0.0395 (  6500 PWs)   bands (ev):

   -43.8773 -43.8712 -43.8489 -43.8472 -43.8427 -43.8411 -43.7735 -43.7732
   -43.7673 -43.7670  -8.8714  -8.8223  -5.2685  -5.2397  -5.1898  -5.1669
    -5.1575  -5.1524  -5.1258  -5.1167  -5.0409  -5.0087  -0.5102   0.0470
     1.2374   1.5678   1.9541   2.2877   4.1284   4.9576   6.8103   7.2791
     8.1261   8.9671   9.1670   9.2286  10.6696  11.3111  12.0312  12.8592

          k = 0.0708 0.0413 0.0000 (  6497 PWs)   bands (ev):

   -43.8772 -43.8712 -43.8489 -43.8473 -43.8427 -43.8412 -43.7735 -43.7732
   -43.7674 -43.7670  -8.8961  -8.7991  -5.2861  -5.2277  -5.2032  -5.1696
    -5.1483  -5.1393  -5.1293  -5.1188  -5.0495  -4.9847  -0.7199   0.5724
     0.9976   1.2977   1.8230   2.4900   4.1337   5.6162   6.2895   7.3705
     7.6835   8.9670   9.6376   9.8251  10.2435  11.1946  11.5321  12.6474

          k = 0.0708 0.0413 0.0395 (  6505 PWs)   bands (ev):

   -43.8773 -43.8713 -43.8489 -43.8472 -43.8427 -43.8412 -43.7735 -43.7732
   -43.7673 -43.7671  -8.8719  -8.8235  -5.2686  -5.2396  -5.1891  -5.1657
    -5.1574  -5.1514  -5.1269  -5.1179  -5.0411  -5.0088  -0.5156   0.0395
     1.2292   1.5591   1.9696   2.3001   4.1304   4.9673   6.8203   7.2866
     8.1439   8.9740   9.1800   9.2447  10.6458  11.2893  12.0423  12.8713

          k = 0.0708 0.0413-0.0395 (  6504 PWs)   bands (ev):

   -43.8773 -43.8713 -43.8489 -43.8472 -43.8427 -43.8412 -43.7735 -43.7733
   -43.7673 -43.7671  -8.8720  -8.8234  -5.2685  -5.2397  -5.1892  -5.1659
    -5.1571  -5.1511  -5.1274  -5.1176  -5.0404  -5.0092  -0.5165   0.0394
     1.2298   1.5603   1.9699   2.2996   4.1314   4.9644   6.8200   7.2876
     8.1451   8.9770   9.1778   9.2418  10.6458  11.2888  12.0406  12.8685

          k = 0.0711 0.1235 0.0000 (  6501 PWs)   bands (ev):

   -43.8772 -43.8711 -43.8487 -43.8471 -43.8425 -43.8410 -43.7735 -43.7734
   -43.7673 -43.7672  -8.8138  -8.8104  -5.2674  -5.2643  -5.2239  -5.1495
    -5.1443  -5.1402  -5.1329  -5.1221  -4.9647  -4.9628  -0.0057  -0.0032
     1.0137   1.0432   1.0507   1.9514   5.3554   5.3649   5.8280   7.4773
     7.4875   8.0912  10.0888  10.1222  11.0656  11.7042  12.1533  12.2007

          k = 0.0711 0.1236 0.0396 (  6531 PWs)   bands (ev):

   -43.8773 -43.8713 -43.8489 -43.8473 -43.8427 -43.8412 -43.7736 -43.7734
   -43.7674 -43.7672  -8.8127  -8.8109  -5.2615  -5.2594  -5.2049  -5.1644
    -5.1512  -5.1421  -5.1329  -5.1225  -4.9695  -4.9681  -0.1638  -0.1625
     1.2069   1.3945   1.3958   1.6628   4.7609   4.7708   6.4004   7.5234
     7.8882   7.8949  10.4784  10.4948  10.9371  10.9969  12.1856  12.2083

          k = 0.0711 0.1235-0.0395 (  6535 PWs)   bands (ev):

   -43.8774 -43.8714 -43.8489 -43.8473 -43.8428 -43.8412 -43.7736 -43.7734
   -43.7674 -43.7673  -8.8127  -8.8109  -5.2611  -5.2598  -5.2049  -5.1644
    -5.1512  -5.1422  -5.1329  -5.1225  -4.9693  -4.9683  -0.1642  -0.1621
     1.2069   1.3926   1.3977   1.6628   4.7616   4.7701   6.4003   7.5235
     7.8870   7.8959  10.4790  10.4943  10.9367  10.9975  12.1860  12.2078

          k = 0.0705-0.0409 0.0000 (  6499 PWs)   bands (ev):

   -43.8773 -43.8712 -43.8488 -43.8473 -43.8426 -43.8412 -43.7734 -43.7734
   -43.7672 -43.7672  -8.8970  -8.8019  -5.2891  -5.2266  -5.2014  -5.1691
    -5.1498  -5.1395  -5.1278  -5.1170  -5.0509  -4.9842  -0.7300   0.5532
     0.9844   1.2823   1.8563   2.5109   4.1470   5.6451   6.2900   7.3829
     7.7290   8.9754   9.6610   9.8420  10.1993  11.1832  11.5543  12.6693

          k = 0.0706-0.0409 0.0395 (  6499 PWs)   bands (ev):

   -43.8774 -43.8713 -43.8489 -43.8471 -43.8427 -43.8410 -43.7735 -43.7734
   -43.7673 -43.7672  -8.8732  -8.8258  -5.2700  -5.2397  -5.1877  -5.1655
    -5.1566  -5.1515  -5.1258  -5.1159  -5.0421  -5.0103  -0.5273   0.0237
     1.2146   1.5473   2.0006   2.3249   4.1355   4.9776   6.8361   7.3067
     8.1866   8.9994   9.2049   9.2575  10.6036  11.2513  12.0606  12.8938

          k = 0.0705-0.0409-0.0395 (  6495 PWs)   bands (ev):

   -43.8773 -43.8713 -43.8488 -43.8471 -43.8426 -43.8410 -43.7735 -43.7734
   -43.7673 -43.7672  -8.8733  -8.8257  -5.2705  -5.2389  -5.1876  -5.1653
    -5.1570  -5.1518  -5.1253  -5.1162  -5.0430  -5.0095  -0.5286   0.0249
     1.2143   1.5481   2.0009   2.3246   4.1360   4.9760   6.8348   7.3084
     8.1871   8.9974   9.2059   9.2589  10.6029  11.2526  12.0577  12.8930

 ------ SPIN DOWN ----------


          k = 0.0000 0.0000 0.0000 (  6451 PWs)   bands (ev):

   -43.8787 -43.8726 -43.8502 -43.8486 -43.8439 -43.8424 -43.7748 -43.7744
   -43.7686 -43.7682  -9.0114  -8.8426  -5.2458  -5.1970  -5.1920  -5.1575
    -5.1540  -5.1445  -5.1418  -5.1366  -5.1344  -5.0867  -1.2827   1.4282
     2.1505   2.1715   2.2124   2.6234   2.6430   5.1348   8.1267   8.1729
     8.2455   8.6258   9.2560   9.2652  10.4045  11.1369  11.2598  12.2964

          k = 0.0000 0.0000 0.0395 (  6487 PWs)   bands (ev):

   -43.8785 -43.8725 -43.8504 -43.8488 -43.8442 -43.8427 -43.7749 -43.7747
   -43.7687 -43.7685  -8.9702  -8.8857  -5.2163  -5.1881  -5.1843  -5.1673
    -5.1649  -5.1443  -5.1413  -5.1373  -5.1349  -5.1346  -0.8584   0.2390
     2.2666   2.3116   2.4978   2.5267   3.4702   4.7313   7.9438   8.1351
     8.3706   8.3984   8.9038   8.9190  11.1366  11.5850  11.7103  12.1978

          k = 0.0003 0.0822 0.0000 (  6500 PWs)   bands (ev):

   -43.8787 -43.8726 -43.8504 -43.8487 -43.8442 -43.8427 -43.7750 -43.7747
   -43.7689 -43.7685  -8.9042  -8.8062  -5.2832  -5.2265  -5.2026  -5.1691
    -5.1472  -5.1373  -5.1263  -5.1158  -5.0481  -4.9841  -0.7169   0.5814
     1.0000   1.3006   1.7986   2.4717   4.1230   5.5992   6.2916   7.3692
     7.6624   8.9612   9.6225   9.8215  10.2681  11.1996  11.5223  12.6346

          k = 0.0003 0.0822 0.0395 (  6503 PWs)   bands (ev):

   -43.8788 -43.8727 -43.8503 -43.8487 -43.8441 -43.8426 -43.7750 -43.7747
   -43.7688 -43.7685  -8.8798  -8.8308  -5.2661  -5.2387  -5.1881  -5.1653
    -5.1554  -5.1502  -5.1245  -5.1146  -5.0386  -5.0081  -0.5121   0.0463
     1.2328   1.5593   1.9467   2.2798   4.1256   4.9609   6.8153   7.2756
     8.1286   8.9669   9.1701   9.2261  10.6673  11.3108  12.0351  12.8576

          k = 0.0003 0.0822-0.0395 (  6500 PWs)   bands (ev):

   -43.8787 -43.8727 -43.8503 -43.8487 -43.8441 -43.8426 -43.7750 -43.7747
   -43.7688 -43.7685  -8.8798  -8.8308  -5.2667  -5.2379  -5.1879  -5.1651
    -5.1557  -5.1505  -5.1240  -5.1149  -5.0394  -5.0073  -0.5116   0.0451
     1.2316   1.5614   1.9468   2.2797   4.1285   4.9574   6.8112   7.2798
     8.1287   8.9667   9.1688   9.2281  10.6680  11.3105  12.0304  12.8572

          k = 0.0708 0.0413 0.0000 (  6497 PWs)   bands (ev):

   -43.8787 -43.8726 -43.8503 -43.8487 -43.8441 -43.8427 -43.7751 -43.7747
   -43.7689 -43.7685  -8.9044  -8.8076  -5.2844  -5.2259  -5.2014  -5.1678
    -5.1464  -5.1374  -5.1275  -5.1170  -5.0481  -4.9833  -0.7212   0.5703
     0.9925   1.2919   1.8159   2.4815   4.1317   5.6154   6.2916   7.3717
     7.6866   8.9661   9.6367   9.8271  10.2433  11.1933  11.5320  12.6454

          k = 0.0708 0.0413 0.0395 (  6505 PWs)   bands (ev):

   -43.8788 -43.8727 -43.8504 -43.8487 -43.8442 -43.8426 -43.7750 -43.7748
   -43.7688 -43.7686  -8.8803  -8.8320  -5.2668  -5.2378  -5.1873  -5.1639
    -5.1555  -5.1495  -5.1251  -5.1161  -5.0396  -5.0074  -0.5171   0.0376
     1.2235   1.5527   1.9622   2.2920   4.1304   4.9670   6.8212   7.2873
     8.1465   8.9736   9.1816   9.2443  10.6443  11.2888  12.0414  12.8694

          k = 0.0708 0.0413-0.0395 (  6504 PWs)   bands (ev):

   -43.8788 -43.8727 -43.8503 -43.8487 -43.8441 -43.8426 -43.7750 -43.7748
   -43.7688 -43.7686  -8.8804  -8.8319  -5.2668  -5.2380  -5.1874  -5.1641
    -5.1552  -5.1492  -5.1256  -5.1158  -5.0390  -5.0078  -0.5180   0.0375
     1.2241   1.5540   1.9626   2.2916   4.1314   4.9642   6.8209   7.2882
     8.1477   8.9766   9.1794   9.2415  10.6443  11.2883  12.0397  12.8666

          k = 0.0711 0.1235 0.0000 (  6501 PWs)   bands (ev):

   -43.8786 -43.8726 -43.8502 -43.8486 -43.8440 -43.8425 -43.7750 -43.7749
   -43.7688 -43.7687  -8.8223  -8.8189  -5.2657  -5.2625  -5.2221  -5.1477
    -5.1424  -5.1384  -5.1311  -5.1203  -4.9633  -4.9614  -0.0072  -0.0047
     1.0080   1.0380   1.0454   1.9437   5.3530   5.3624   5.8303   7.4794
     7.4895   8.0906  10.0892  10.1226  11.0617  11.7027  12.1533  12.2007

          k = 0.0711 0.1236 0.0396 (  6531 PWs)   bands (ev):

   -43.8788 -43.8728 -43.8504 -43.8487 -43.8442 -43.8427 -43.7751 -43.7749
   -43.7689 -43.7687  -8.8212  -8.8194  -5.2597  -5.2576  -5.2031  -5.1626
    -5.1494  -5.1403  -5.1311  -5.1207  -4.9681  -4.9668  -0.1655  -0.1641
     1.2009   1.3888   1.3900   1.6560   4.7606   4.7704   6.4018   7.5235
     7.8884   7.8951  10.4796  10.4960  10.9337  10.9944  12.1853  12.2080

          k = 0.0711 0.1235-0.0395 (  6535 PWs)   bands (ev):

   -43.8789 -43.8728 -43.8504 -43.8488 -43.8442 -43.8427 -43.7751 -43.7750
   -43.7689 -43.7688  -8.8212  -8.8193  -5.2594  -5.2581  -5.2031  -5.1625
    -5.1493  -5.1403  -5.1311  -5.1207  -4.9680  -4.9670  -0.1658  -0.1638
     1.2009   1.3868   1.3920   1.6559   4.7613   4.7698   6.4017   7.5237
     7.8872   7.8961  10.4802  10.4955  10.9333  10.9951  12.1857  12.2075

          k = 0.0705-0.0409 0.0000 (  6499 PWs)   bands (ev):

   -43.8788 -43.8727 -43.8502 -43.8488 -43.8440 -43.8427 -43.7750 -43.7749
   -43.7688 -43.7687  -8.9053  -8.8105  -5.2874  -5.2248  -5.1996  -5.1673
    -5.1479  -5.1376  -5.1260  -5.1152  -5.0495  -4.9828  -0.7312   0.5512
     0.9792   1.2765   1.8492   2.5023   4.1449   5.6441   6.2922   7.3840
     7.7321   8.9745   9.6601   9.8441  10.1991  11.1819  11.5543  12.6674

          k = 0.0706-0.0409 0.0395 (  6499 PWs)   bands (ev):

   -43.8788 -43.8728 -43.8503 -43.8486 -43.8441 -43.8425 -43.7750 -43.7749
   -43.7688 -43.7687  -8.8816  -8.8343  -5.2682  -5.2379  -5.1859  -5.1637
    -5.1548  -5.1497  -5.1240  -5.1141  -5.0406  -5.0088  -0.5288   0.0218
     1.2089   1.5410   1.9932   2.3168   4.1355   4.9773   6.8369   7.3073
     8.1892   8.9989   9.2068   9.2570  10.6022  11.2509  12.0597  12.8916

          k = 0.0705-0.0409-0.0395 (  6495 PWs)   bands (ev):

   -43.8788 -43.8728 -43.8503 -43.8485 -43.8441 -43.8425 -43.7750 -43.7749
   -43.7688 -43.7687  -8.8817  -8.8342  -5.2688  -5.2371  -5.1857  -5.1635
    -5.1551  -5.1499  -5.1235  -5.1144  -5.0416  -5.0080  -0.5300   0.0230
     1.2086   1.5418   1.9935   2.3165   4.1360   4.9757   6.8356   7.3091
     8.1897   8.9969   9.2079   9.2583  10.6014  11.2522  12.0568  12.8909

     the Fermi energy is     2.6399 ev

!    total energy              =    -717.71062103 Ry
     Harris-Foulkes estimate   =    -717.71062530 Ry
     estimated scf accuracy    <       0.00000862 Ry

     total magnetization       =    -0.01 Bohr mag/cell
     absolute magnetization    =     0.01 Bohr mag/cell

     convergence has been achieved in   6 iterations

     Forces acting on atoms (cartesian axes, Ry/au):

     atom    1 type  1   force =     0.00063705   -0.00096900   -0.05587577
     atom    2 type  1   force =    -0.00073220    0.00088170   -0.05429083
     atom    3 type  2   force =     0.00000591    0.00006878    0.05989457
     atom    4 type  2   force =     0.00008925    0.00001852    0.05027202

     Total force =     0.110394     Total SCF correction =     0.014614
     SCF correction compared to forces is large: reduce conv_thr to get better values

     Molecular Dynamics Calculation

     Starting temperature  =   300.00 K

     temperature is controlled by Andersen thermostat
     Collision frequency = 1.0000/timestep
     mass Cd               =   121.41
     mass Se               =    78.96
     Time step             =    20.67 a.u.,  1.0000 femto-seconds

     Entering Dynamics:    iteration =     1
                           time      =   0.0010 pico-seconds


     Andersen thermostat:    4 collisions

ATOMIC_POSITIONS (alat)
Cd            0.0047221142        2.6804921083        8.7952164960
Cd            2.3354788941        1.3632651818        4.5750603010
Se           -0.0092511185        2.7026903051        2.8915872847
Se            2.3525312585        1.3455373229        7.1019575340


     kinetic energy (Ekin) =           0.01077466 Ry
     temperature           =         378.04033366 K 
     Ekin + Etot (const)   =        -717.69984638 Ry

     Linear momentum :    0.0000000000   -0.0000000000    0.0000000000

     Writing output data file ./x0.save/
     NEW-OLD atomic charge density approx. for the potential

     total cpu time spent up to now is      224.0 secs

     Self-consistent Calculation

     iteration #  1     ecut=    50.00 Ry     beta= 0.45
     Davidson diagonalization with overlap
     ethr =  1.00E-06,  avg # of iterations =  4.0

     total cpu time spent up to now is      262.4 secs

     total energy              =    -717.71079358 Ry
     Harris-Foulkes estimate   =    -717.71085387 Ry
     estimated scf accuracy    <       0.00009551 Ry

     total magnetization       =    -0.00 Bohr mag/cell
     absolute magnetization    =     0.01 Bohr mag/cell

     iteration #  2     ecut=    50.00 Ry     beta= 0.45
     Davidson diagonalization with overlap
     ethr =  1.71E-07,  avg # of iterations =  2.1

     total cpu time spent up to now is      285.6 secs

     total energy              =    -717.71081553 Ry
     Harris-Foulkes estimate   =    -717.71085675 Ry
     estimated scf accuracy    <       0.00011778 Ry

     total magnetization       =    -0.00 Bohr mag/cell
     absolute magnetization    =     0.00 Bohr mag/cell

     iteration #  3     ecut=    50.00 Ry     beta= 0.45
     Davidson diagonalization with overlap
     ethr =  1.71E-07,  avg # of iterations =  1.7
 
     Magnetic moment per site:
     atom:    1    charge:    9.6027    magn:    0.0001    constr:    0.0000
     atom:    2    charge:    9.6037    magn:    0.0001    constr:    0.0000
     atom:    3    charge:   13.6923    magn:   -0.0010    constr:    0.0000
     atom:    4    charge:   13.6941    magn:   -0.0010    constr:    0.0000

     total cpu time spent up to now is      307.5 secs

     End of self-consistent calculation

 ------ SPIN UP ------------


          k = 0.0000 0.0000 0.0000 (  6451 PWs)   bands (ev):

   -43.8687 -43.8638 -43.8402 -43.8387 -43.8353 -43.8339 -43.7655 -43.7650
   -43.7605 -43.7601  -9.0042  -8.8349  -5.2500  -5.2011  -5.1962  -5.1612
    -5.1577  -5.1487  -5.1460  -5.1417  -5.1395  -5.0911  -1.2810   1.4338
     2.1535   2.1722   2.2170   2.6293   2.6489   5.1327   8.1254   8.1715
     8.2455   8.6229   9.2524   9.2636  10.4059  11.1390  11.2608  12.2972

          k = 0.0000 0.0000 0.0395 (  6487 PWs)   bands (ev):

   -43.8685 -43.8637 -43.8404 -43.8389 -43.8356 -43.8342 -43.7656 -43.7654
   -43.7606 -43.7604  -8.9629  -8.8781  -5.2204  -5.1921  -5.1883  -5.1715
    -5.1691  -5.1484  -5.1454  -5.1419  -5.1396  -5.1394  -0.8565   0.2415
     2.2725   2.3167   2.5037   2.5323   3.4705   4.7303   7.9449   8.1341
     8.3672   8.3963   8.9007   8.9172  11.1374  11.5870  11.7114  12.1980

          k = 0.0003 0.0822 0.0000 (  6500 PWs)   bands (ev):

   -43.8686 -43.8638 -43.8404 -43.8388 -43.8356 -43.8341 -43.7657 -43.7653
   -43.7607 -43.7604  -8.8968  -8.7985  -5.2875  -5.2305  -5.2069  -5.1731
    -5.1517  -5.1421  -5.1297  -5.1205  -5.0522  -4.9882  -0.7157   0.5824
     1.0038   1.3051   1.8034   2.4769   4.1235   5.6001   6.2910   7.3698
     7.6613   8.9644   9.6228   9.8208  10.2663  11.1998  11.5247  12.6350

          k = 0.0003 0.0822 0.0395 (  6503 PWs)   bands (ev):

   -43.8688 -43.8639 -43.8403 -43.8388 -43.8355 -43.8341 -43.7657 -43.7654
   -43.7607 -43.7604  -8.8724  -8.8232  -5.2704  -5.2427  -5.1923  -5.1691
    -5.1602  -5.1550  -5.1280  -5.1193  -5.0429  -5.0120  -0.5087   0.0451
     1.2357   1.5644   1.9513   2.2850   4.1275   4.9613   6.8147   7.2746
     8.1273   8.9721   9.1701   9.2245  10.6686  11.3062  12.0344  12.8575

          k = 0.0003 0.0822-0.0395 (  6500 PWs)   bands (ev):

   -43.8687 -43.8639 -43.8403 -43.8388 -43.8355 -43.8341 -43.7657 -43.7653
   -43.7607 -43.7604  -8.8727  -8.8228  -5.2707  -5.2421  -5.1922  -5.1689
    -5.1605  -5.1554  -5.1275  -5.1196  -5.0434  -5.0116  -0.5122   0.0497
     1.2353   1.5644   1.9518   2.2845   4.1273   4.9596   6.8112   7.2805
     8.1284   8.9648   9.1686   9.2310  10.6660  11.3135  12.0325  12.8576

          k = 0.0708 0.0413 0.0000 (  6497 PWs)   bands (ev):

   -43.8687 -43.8638 -43.8403 -43.8389 -43.8356 -43.8341 -43.7657 -43.7654
   -43.7608 -43.7604  -8.8970  -8.7999  -5.2886  -5.2301  -5.2057  -5.1717
    -5.1510  -5.1422  -5.1309  -5.1216  -5.0522  -4.9874  -0.7196   0.5703
     0.9952   1.2963   1.8209   2.4868   4.1339   5.6156   6.2932   7.3721
     7.6856   8.9670   9.6361   9.8257  10.2432  11.1931  11.5336  12.6452

          k = 0.0708 0.0413 0.0395 (  6505 PWs)   bands (ev):

   -43.8688 -43.8639 -43.8404 -43.8388 -43.8356 -43.8341 -43.7657 -43.7654
   -43.7607 -43.7605  -8.8729  -8.8243  -5.2711  -5.2419  -5.1914  -5.1676
    -5.1603  -5.1544  -5.1286  -5.1206  -5.0436  -5.0115  -0.5142   0.0365
     1.2257   1.5580   1.9671   2.2975   4.1346   4.9640   6.8183   7.2928
     8.1452   8.9731   9.1803   9.2464  10.6466  11.2889  12.0407  12.8710

          k = 0.0708 0.0413-0.0395 (  6504 PWs)   bands (ev):

   -43.8688 -43.8639 -43.8403 -43.8388 -43.8355 -43.8341 -43.7657 -43.7655
   -43.7607 -43.7605  -8.8733  -8.8239  -5.2709  -5.2422  -5.1914  -5.1679
    -5.1600  -5.1541  -5.1291  -5.1203  -5.0432  -5.0119  -0.5181   0.0403
     1.2288   1.5568   1.9679   2.2966   4.1282   4.9675   6.8268   7.2842
     8.1476   8.9791   9.1798   9.2395  10.6442  11.2867  12.0416  12.8657

          k = 0.0711 0.1235 0.0000 (  6501 PWs)   bands (ev):

   -43.8686 -43.8638 -43.8402 -43.8387 -43.8354 -43.8340 -43.7657 -43.7655
   -43.7607 -43.7606  -8.8171  -8.8089  -5.2698  -5.2667  -5.2264  -5.1511
    -5.1471  -5.1436  -5.1345  -5.1248  -4.9675  -4.9653  -0.0090  -0.0013
     1.0120   1.0415   1.0489   1.9480   5.3467   5.3720   5.8311   7.4764
     7.4939   8.0936  10.0881  10.1193  11.0643  11.7031  12.1527  12.1976

          k = 0.0711 0.1236 0.0396 (  6531 PWs)   bands (ev):

   -43.8688 -43.8640 -43.8404 -43.8389 -43.8356 -43.8342 -43.7658 -43.7656
   -43.7608 -43.7606  -8.8165  -8.8089  -5.2639  -5.2618  -5.2073  -5.1674
    -5.1527  -5.1455  -5.1344  -5.1252  -4.9724  -4.9705  -0.1674  -0.1602
     1.2047   1.3909   1.3954   1.6600   4.7553   4.7772   6.4031   7.5259
     7.8855   7.9004  10.4766  10.4937  10.9358  10.9962  12.1838  12.2081

          k = 0.0711 0.1235-0.0395 (  6535 PWs)   bands (ev):

   -43.8689 -43.8640 -43.8404 -43.8389 -43.8356 -43.8342 -43.7658 -43.7656
   -43.7608 -43.7607  -8.8166  -8.8088  -5.2638  -5.2620  -5.2074  -5.1674
    -5.1527  -5.1456  -5.1345  -5.1252  -4.9724  -4.9706  -0.1670  -0.1607
     1.2048   1.3916   1.3947   1.6600   4.7553   4.7771   6.4029   7.5261
     7.8848   7.9010  10.4760  10.4946  10.9350  10.9969  12.1861  12.2057

          k = 0.0705-0.0409 0.0000 (  6499 PWs)   bands (ev):

   -43.8688 -43.8639 -43.8403 -43.8389 -43.8355 -43.8342 -43.7656 -43.7656
   -43.7606 -43.7606  -8.8980  -8.8026  -5.2914  -5.2291  -5.2039  -5.1713
    -5.1525  -5.1424  -5.1294  -5.1199  -5.0536  -4.9871  -0.7299   0.5527
     0.9830   1.2815   1.8536   2.5075   4.1455   5.6440   6.2927   7.3836
     7.7311   8.9756   9.6574   9.8441  10.2005  11.1829  11.5559  12.6675

          k = 0.0706-0.0409 0.0395 (  6499 PWs)   bands (ev):

   -43.8688 -43.8640 -43.8403 -43.8387 -43.8355 -43.8340 -43.7657 -43.7656
   -43.7607 -43.7606  -8.8744  -8.8264  -5.2723  -5.2421  -5.1901  -5.1675
    -5.1596  -5.1545  -5.1275  -5.1187  -5.0449  -5.0129  -0.5276   0.0238
     1.2137   1.5452   1.9978   2.3216   4.1335   4.9794   6.8397   7.3036
     8.1888   9.0013   9.2075   9.2538  10.6044  11.2504  12.0606  12.8911

          k = 0.0705-0.0409-0.0395 (  6495 PWs)   bands (ev):

   -43.8688 -43.8640 -43.8403 -43.8387 -43.8355 -43.8339 -43.7657 -43.7656
   -43.7607 -43.7606  -8.8745  -8.8263  -5.2729  -5.2414  -5.1899  -5.1672
    -5.1599  -5.1548  -5.1270  -5.1190  -5.0456  -5.0123  -0.5282   0.0244
     1.2121   1.5468   1.9979   2.3215   4.1379   4.9741   6.8331   7.3119
     8.1888   8.9945   9.2068   9.2601  10.6040  11.2554  12.0571  12.8922

 ------ SPIN DOWN ----------


          k = 0.0000 0.0000 0.0000 (  6451 PWs)   bands (ev):

   -43.8690 -43.8641 -43.8405 -43.8391 -43.8357 -43.8343 -43.7660 -43.7655
   -43.7610 -43.7605  -9.0066  -8.8375  -5.2499  -5.2010  -5.1961  -5.1611
    -5.1575  -5.1485  -5.1458  -5.1415  -5.1394  -5.0911  -1.2811   1.4327
     2.1529   2.1709   2.2143   2.6263   2.6458   5.1331   8.1262   8.1724
     8.2452   8.6232   9.2529   9.2641  10.4060  11.1386  11.2603  12.2971

          k = 0.0000 0.0000 0.0395 (  6487 PWs)   bands (ev):

   -43.8688 -43.8640 -43.8408 -43.8393 -43.8360 -43.8345 -43.7661 -43.7658
   -43.7610 -43.7608  -8.9654  -8.8806  -5.2203  -5.1920  -5.1882  -5.1714
    -5.1690  -5.1482  -5.1452  -5.1418  -5.1394  -5.1392  -0.8566   0.2411
     2.2699   2.3138   2.5009   2.5293   3.4705   4.7305   7.9446   8.1343
     8.3680   8.3971   8.9012   8.9178  11.1374  11.5866  11.7109  12.1981

          k = 0.0003 0.0822 0.0000 (  6500 PWs)   bands (ev):

   -43.8690 -43.8641 -43.8407 -43.8392 -43.8359 -43.8345 -43.7662 -43.7658
   -43.7612 -43.7608  -8.8994  -8.8011  -5.2874  -5.2304  -5.2069  -5.1729
    -5.1515  -5.1420  -5.1295  -5.1204  -5.0521  -4.9882  -0.7159   0.5816
     1.0022   1.3036   1.8010   2.4741   4.1227   5.5999   6.2915   7.3699
     7.6621   8.9642   9.6226   9.8212  10.2661  11.1994  11.5247  12.6344

          k = 0.0003 0.0822 0.0395 (  6503 PWs)   bands (ev):

   -43.8691 -43.8642 -43.8407 -43.8391 -43.8359 -43.8344 -43.7662 -43.7658
   -43.7612 -43.7609  -8.8749  -8.8257  -5.2703  -5.2425  -5.1922  -5.1690
    -5.1601  -5.1548  -5.1278  -5.1191  -5.0428  -5.0120  -0.5090   0.0446
     1.2339   1.5626   1.9489   2.2824   4.1274   4.9612   6.8149   7.2747
     8.1279   8.9720   9.1704   9.2243  10.6680  11.3061  12.0341  12.8569

          k = 0.0003 0.0822-0.0395 (  6500 PWs)   bands (ev):

   -43.8691 -43.8642 -43.8407 -43.8391 -43.8359 -43.8344 -43.7661 -43.7658
   -43.7611 -43.7608  -8.8753  -8.8253  -5.2706  -5.2420  -5.1921  -5.1687
    -5.1604  -5.1552  -5.1273  -5.1194  -5.0433  -5.0116  -0.5125   0.0491
     1.2335   1.5625   1.9493   2.2819   4.1272   4.9595   6.8114   7.2805
     8.1290   8.9646   9.1689   9.2309  10.6655  11.3133  12.0322  12.8570

          k = 0.0708 0.0413 0.0000 (  6497 PWs)   bands (ev):

   -43.8690 -43.8641 -43.8407 -43.8392 -43.8359 -43.8345 -43.7662 -43.7658
   -43.7612 -43.7608  -8.8995  -8.8025  -5.2885  -5.2300  -5.2056  -5.1715
    -5.1508  -5.1420  -5.1307  -5.1214  -5.0521  -4.9874  -0.7198   0.5695
     0.9936   1.2949   1.8185   2.4840   4.1331   5.6154   6.2937   7.3722
     7.6863   8.9668   9.6359   9.8261  10.2431  11.1927  11.5337  12.6446

          k = 0.0708 0.0413 0.0395 (  6505 PWs)   bands (ev):

   -43.8691 -43.8642 -43.8407 -43.8392 -43.8359 -43.8344 -43.7662 -43.7659
   -43.7612 -43.7609  -8.8754  -8.8268  -5.2710  -5.2418  -5.1913  -5.1674
    -5.1601  -5.1543  -5.1284  -5.1205  -5.0436  -5.0115  -0.5144   0.0360
     1.2239   1.5561   1.9646   2.2948   4.1345   4.9639   6.8184   7.2929
     8.1458   8.9730   9.1806   9.2463  10.6461  11.2888  12.0405  12.8704

          k = 0.0708 0.0413-0.0395 (  6504 PWs)   bands (ev):

   -43.8691 -43.8642 -43.8407 -43.8392 -43.8359 -43.8345 -43.7661 -43.7659
   -43.7612 -43.7609  -8.8758  -8.8264  -5.2708  -5.2421  -5.1913  -5.1677
    -5.1599  -5.1539  -5.1289  -5.1202  -5.0431  -5.0119  -0.5184   0.0398
     1.2270   1.5549   1.9654   2.2939   4.1280   4.9674   6.8269   7.2843
     8.1482   8.9790   9.1801   9.2394  10.6437  11.2866  12.0414  12.8650

          k = 0.0711 0.1235 0.0000 (  6501 PWs)   bands (ev):

   -43.8690 -43.8641 -43.8405 -43.8390 -43.8358 -43.8343 -43.7662 -43.7660
   -43.7612 -43.7610  -8.8196  -8.8115  -5.2697  -5.2666  -5.2263  -5.1509
    -5.1470  -5.1434  -5.1343  -5.1247  -4.9676  -4.9653  -0.0094  -0.0017
     1.0101   1.0400   1.0474   1.9454   5.3459   5.3711   5.8316   7.4769
     7.4945   8.0931  10.0882  10.1194  11.0631  11.7026  12.1528  12.1978

          k = 0.0711 0.1236 0.0396 (  6531 PWs)   bands (ev):

   -43.8691 -43.8643 -43.8407 -43.8392 -43.8360 -43.8345 -43.7662 -43.7661
   -43.7612 -43.7611  -8.8190  -8.8114  -5.2638  -5.2617  -5.2072  -5.1673
    -5.1525  -5.1454  -5.1343  -5.1251  -4.9724  -4.9706  -0.1678  -0.1606
     1.2027   1.3893   1.3938   1.6576   4.7550   4.7770   6.4033   7.5257
     7.8855   7.9003  10.4769  10.4941  10.9348  10.9954  12.1838  12.2081

          k = 0.0711 0.1235-0.0395 (  6535 PWs)   bands (ev):

   -43.8692 -43.8643 -43.8407 -43.8392 -43.8360 -43.8345 -43.7663 -43.7661
   -43.7613 -43.7611  -8.8191  -8.8113  -5.2636  -5.2619  -5.2073  -5.1673
    -5.1525  -5.1454  -5.1343  -5.1251  -4.9724  -4.9706  -0.1674  -0.1611
     1.2028   1.3900   1.3931   1.6576   4.7551   4.7768   6.4032   7.5259
     7.8848   7.9010  10.4763  10.4949  10.9339  10.9961  12.1861  12.2058

          k = 0.0705-0.0409 0.0000 (  6499 PWs)   bands (ev):

   -43.8691 -43.8642 -43.8406 -43.8392 -43.8358 -43.8345 -43.7661 -43.7660
   -43.7611 -43.7611  -8.9005  -8.8052  -5.2913  -5.2289  -5.2038  -5.1711
    -5.1523  -5.1423  -5.1292  -5.1197  -5.0536  -4.9871  -0.7301   0.5520
     0.9815   1.2800   1.8510   2.5045   4.1447   5.6437   6.2932   7.3837
     7.7319   8.9754   9.6572   9.8444  10.2004  11.1825  11.5560  12.6668

          k = 0.0706-0.0409 0.0395 (  6499 PWs)   bands (ev):

   -43.8691 -43.8643 -43.8407 -43.8391 -43.8359 -43.8343 -43.7661 -43.7661
   -43.7611 -43.7611  -8.8770  -8.8289  -5.2722  -5.2420  -5.1900  -5.1673
    -5.1595  -5.1543  -5.1273  -5.1186  -5.0449  -5.0129  -0.5279   0.0233
     1.2120   1.5434   1.9952   2.3188   4.1334   4.9793   6.8398   7.3037
     8.1894   9.0012   9.2078   9.2536  10.6039  11.2503  12.0604  12.8904

          k = 0.0705-0.0409-0.0395 (  6495 PWs)   bands (ev):

   -43.8691 -43.8643 -43.8406 -43.8390 -43.8359 -43.8343 -43.7661 -43.7660
   -43.7611 -43.7610  -8.8770  -8.8289  -5.2728  -5.2412  -5.1898  -5.1671
    -5.1597  -5.1546  -5.1269  -5.1188  -5.0455  -5.0123  -0.5285   0.0240
     1.2104   1.5450   1.9953   2.3187   4.1378   4.9741   6.8333   7.3119
     8.1895   8.9943   9.2071   9.2600  10.6035  11.2553  12.0569  12.8915

     the Fermi energy is     2.6398 ev

!    total energy              =    -717.71083351 Ry
     Harris-Foulkes estimate   =    -717.71083532 Ry
     estimated scf accuracy    <       0.00000236 Ry

     total magnetization       =    -0.00 Bohr mag/cell
     absolute magnetization    =     0.00 Bohr mag/cell

     convergence has been achieved in   3 iterations

     Forces acting on atoms (cartesian axes, Ry/au):

     atom    1 type  1   force =     0.00068887   -0.00115852   -0.05166695
     atom    2 type  1   force =    -0.00079884    0.00053908   -0.05726731
     atom    3 type  2   force =    -0.00014693    0.00011545    0.05521531
     atom    4 type  2   force =     0.00025690    0.00050398    0.05371896

     Total force =     0.109026     Total SCF correction =     0.006288

     Entering Dynamics:    iteration =     2
                           time      =   0.0020 pico-seconds


     Andersen thermostat:    4 collisions

ATOMIC_POSITIONS (alat)
Cd            0.0026098326        2.6780803274        8.7943869870
Cd            2.3366137380        1.3640711787        4.5755180115
Se           -0.0074402961        2.7066589980        2.8925789657
Se            2.3522233703        1.3440377263        7.1015375403


     kinetic energy (Ekin) =           0.01289418 Ry
     temperature           =         452.40623328 K 
     Ekin + Etot (const)   =        -717.69793933 Ry
     Message from routine dynamics:
     Total linear momentum <> 0

     Linear momentum :   -3.0256081321    1.1899842506    2.7497328177

     Writing output data file ./x0.save/
     NEW-OLD atomic charge density approx. for the potential

     total cpu time spent up to now is      319.3 secs

     Self-consistent Calculation

     iteration #  1     ecut=    50.00 Ry     beta= 0.45
     Davidson diagonalization with overlap
     ethr =  1.00E-06,  avg # of iterations =  4.0

     Threshold (ethr) on eigenvalues was too large:
     Diagonalizing with lowered threshold

     Davidson diagonalization with overlap
     ethr =  6.85E-08,  avg # of iterations =  1.0

     total cpu time spent up to now is      377.4 secs

     total energy              =    -717.71091222 Ry
     Harris-Foulkes estimate   =    -717.71093602 Ry
     estimated scf accuracy    <       0.00003827 Ry

     total magnetization       =    -0.00 Bohr mag/cell
     absolute magnetization    =     0.00 Bohr mag/cell

     iteration #  2     ecut=    50.00 Ry     beta= 0.45
     Davidson diagonalization with overlap
     ethr =  6.83E-08,  avg # of iterations =  2.0

     total cpu time spent up to now is      400.4 secs

     total energy              =    -717.71091960 Ry
     Harris-Foulkes estimate   =    -717.71094030 Ry
     estimated scf accuracy    <       0.00006293 Ry

     total magnetization       =    -0.00 Bohr mag/cell
     absolute magnetization    =     0.00 Bohr mag/cell

     iteration #  3     ecut=    50.00 Ry     beta= 0.45
     Davidson diagonalization with overlap
     ethr =  6.83E-08,  avg # of iterations =  1.2
 
     Magnetic moment per site:
     atom:    1    charge:    9.6027    magn:    0.0000    constr:    0.0000
     atom:    2    charge:    9.6038    magn:    0.0000    constr:    0.0000
     atom:    3    charge:   13.6928    magn:   -0.0003    constr:    0.0000
     atom:    4    charge:   13.6930    magn:   -0.0003    constr:    0.0000

     total cpu time spent up to now is      421.6 secs

     End of self-consistent calculation

 ------ SPIN UP ------------


          k = 0.0000 0.0000 0.0000 (  6451 PWs)   bands (ev):

   -43.8674 -43.8637 -43.8390 -43.8378 -43.8352 -43.8335 -43.7643 -43.7638
   -43.7604 -43.7600  -9.0039  -8.8348  -5.2502  -5.2012  -5.1965  -5.1615
    -5.1580  -5.1491  -5.1465  -5.1424  -5.1401  -5.0913  -1.2805   1.4344
     2.1543   2.1713   2.2163   2.6287   2.6483   5.1325   8.1256   8.1687
     8.2483   8.6221   9.2505   9.2652  10.4063  11.1400  11.2600  12.2970

          k = 0.0000 0.0000 0.0395 (  6487 PWs)   bands (ev):

   -43.8673 -43.8636 -43.8392 -43.8379 -43.8355 -43.8338 -43.7643 -43.7642
   -43.7605 -43.7603  -8.9626  -8.8779  -5.2206  -5.1921  -5.1885  -5.1719
    -5.1696  -5.1485  -5.1456  -5.1423  -5.1404  -5.1400  -0.8560   0.2419
     2.2728   2.3155   2.5035   2.5316   3.4705   4.7302   7.9440   8.1338
     8.3672   8.3968   8.8993   8.9185  11.1376  11.5887  11.7100  12.1980

          k = 0.0003 0.0822 0.0000 (  6500 PWs)   bands (ev):

   -43.8674 -43.8637 -43.8392 -43.8379 -43.8355 -43.8338 -43.7645 -43.7642
   -43.7607 -43.7603  -8.8965  -8.7984  -5.2875  -5.2310  -5.2071  -5.1732
    -5.1524  -5.1424  -5.1294  -5.1215  -5.0526  -4.9886  -0.7147   0.5807
     1.0022   1.3050   1.8034   2.4764   4.1255   5.5988   6.2950   7.3693
     7.6622   8.9606   9.6204   9.8201  10.2692  11.1994  11.5234  12.6336

          k = 0.0003 0.0822 0.0395 (  6503 PWs)   bands (ev):

   -43.8675 -43.8638 -43.8391 -43.8378 -43.8354 -43.8337 -43.7645 -43.7642
   -43.7607 -43.7603  -8.8719  -8.8232  -5.2707  -5.2431  -5.1924  -5.1691
    -5.1606  -5.1557  -5.1278  -5.1203  -5.0434  -5.0123  -0.5070   0.0420
     1.2354   1.5649   1.9511   2.2849   4.1292   4.9583   6.8161   7.2772
     8.1276   8.9721   9.1697   9.2222  10.6725  11.3047  12.0334  12.8575

          k = 0.0003 0.0822-0.0395 (  6500 PWs)   bands (ev):

   -43.8675 -43.8638 -43.8391 -43.8378 -43.8354 -43.8337 -43.7644 -43.7641
   -43.7606 -43.7603  -8.8725  -8.8226  -5.2709  -5.2426  -5.1922  -5.1688
    -5.1609  -5.1561  -5.1273  -5.1206  -5.0437  -5.0121  -0.5134   0.0506
     1.2356   1.5636   1.9518   2.2840   4.1256   4.9593   6.8154   7.2805
     8.1296   8.9618   9.1684   9.2311  10.6671  11.3156  12.0329  12.8573

          k = 0.0708 0.0413 0.0000 (  6497 PWs)   bands (ev):

   -43.8674 -43.8637 -43.8392 -43.8379 -43.8354 -43.8338 -43.7645 -43.7641
   -43.7607 -43.7603  -8.8967  -8.7998  -5.2890  -5.2300  -5.2059  -5.1718
    -5.1517  -5.1427  -5.1308  -5.1227  -5.0526  -4.9877  -0.7199   0.5706
     0.9958   1.2963   1.8206   2.4862   4.1322   5.6169   6.2912   7.3729
     7.6860   8.9704   9.6380   9.8261  10.2396  11.1923  11.5352  12.6457

          k = 0.0708 0.0413 0.0395 (  6505 PWs)   bands (ev):

   -43.8675 -43.8638 -43.8392 -43.8378 -43.8355 -43.8337 -43.7645 -43.7642
   -43.7607 -43.7604  -8.8723  -8.8244  -5.2715  -5.2419  -5.1916  -5.1676
    -5.1607  -5.1553  -5.1285  -5.1217  -5.0440  -5.0118  -0.5126   0.0353
     1.2236   1.5587   1.9665   2.2972   4.1374   4.9638   6.8146   7.2941
     8.1449   8.9747   9.1810   9.2478  10.6442  11.2868  12.0393  12.8712

          k = 0.0708 0.0413-0.0395 (  6504 PWs)   bands (ev):

   -43.8675 -43.8638 -43.8391 -43.8378 -43.8354 -43.8337 -43.7645 -43.7642
   -43.7606 -43.7604  -8.8731  -8.8236  -5.2712  -5.2422  -5.1916  -5.1678
    -5.1606  -5.1550  -5.1290  -5.1214  -5.0436  -5.0123  -0.5194   0.0429
     1.2289   1.5549   1.9676   2.2959   4.1261   4.9712   6.8275   7.2818
     8.1483   8.9804   9.1808   9.2393  10.6401  11.2857  12.0429  12.8643

          k = 0.0711 0.1235 0.0000 (  6501 PWs)   bands (ev):

   -43.8674 -43.8637 -43.8390 -43.8377 -43.8353 -43.8336 -43.7645 -43.7644
   -43.7606 -43.7605  -8.8161  -8.8095  -5.2701  -5.2667  -5.2266  -5.1506
    -5.1475  -5.1448  -5.1344  -5.1259  -4.9677  -4.9659  -0.0100  -0.0003
     1.0119   1.0413   1.0487   1.9472   5.3449   5.3733   5.8320   7.4771
     7.4947   8.0939  10.0858  10.1202  11.0642  11.7025  12.1501  12.1992

          k = 0.0711 0.1236 0.0396 (  6531 PWs)   bands (ev):

   -43.8675 -43.8639 -43.8392 -43.8379 -43.8355 -43.8338 -43.7645 -43.7644
   -43.7607 -43.7606  -8.8154  -8.8095  -5.2642  -5.2619  -5.2075  -5.1679
    -5.1522  -5.1468  -5.1343  -5.1263  -4.9724  -4.9714  -0.1695  -0.1581
     1.2042   1.3895   1.3965   1.6594   4.7533   4.7794   6.4037   7.5262
     7.8847   7.9019  10.4731  10.4955  10.9357  10.9964  12.1824  12.2087

          k = 0.0711 0.1235-0.0395 (  6535 PWs)   bands (ev):

   -43.8676 -43.8639 -43.8392 -43.8379 -43.8355 -43.8338 -43.7646 -43.7644
   -43.7608 -43.7606  -8.8156  -8.8093  -5.2642  -5.2619  -5.2075  -5.1679
    -5.1522  -5.1468  -5.1343  -5.1264  -4.9725  -4.9713  -0.1684  -0.1592
     1.2044   1.3916   1.3942   1.6594   4.7531   4.7796   6.4034   7.5265
     7.8845   7.9021  10.4723  10.4966  10.9344  10.9972  12.1862  12.2050

          k = 0.0705-0.0409 0.0000 (  6499 PWs)   bands (ev):

   -43.8675 -43.8638 -43.8390 -43.8379 -43.8354 -43.8338 -43.7644 -43.7644
   -43.7606 -43.7605  -8.8978  -8.8025  -5.2916  -5.2292  -5.2042  -5.1714
    -5.1531  -5.1428  -5.1294  -5.1210  -5.0540  -4.9875  -0.7298   0.5533
     0.9834   1.2818   1.8528   2.5066   4.1444   5.6438   6.2926   7.3832
     7.7318   8.9761   9.6562   9.8448  10.2008  11.1832  11.5562  12.6674

          k = 0.0706-0.0409 0.0395 (  6499 PWs)   bands (ev):

   -43.8676 -43.8639 -43.8391 -43.8377 -43.8354 -43.8336 -43.7644 -43.7644
   -43.7606 -43.7606  -8.8741  -8.8263  -5.2725  -5.2422  -5.1902  -5.1674
    -5.1601  -5.1553  -5.1275  -5.1199  -5.0453  -5.0133  -0.5273   0.0242
     1.2141   1.5450   1.9970   2.3208   4.1330   4.9800   6.8394   7.3028
     8.1892   9.0011   9.2088   9.2518  10.6049  11.2504  12.0607  12.8903

          k = 0.0705-0.0409-0.0395 (  6495 PWs)   bands (ev):

   -43.8675 -43.8639 -43.8391 -43.8377 -43.8354 -43.8336 -43.7644 -43.7644
   -43.7606 -43.7605  -8.8742  -8.8262  -5.2730  -5.2415  -5.1901  -5.1672
    -5.1603  -5.1556  -5.1270  -5.1202  -5.0459  -5.0128  -0.5280   0.0251
     1.2118   1.5471   1.9971   2.3207   4.1380   4.9742   6.8323   7.3115
     8.1893   8.9934   9.2068   9.2609  10.6037  11.2567  12.0567  12.8921

 ------ SPIN DOWN ----------


          k = 0.0000 0.0000 0.0000 (  6451 PWs)   bands (ev):

   -43.8675 -43.8638 -43.8391 -43.8379 -43.8353 -43.8337 -43.7644 -43.7640
   -43.7606 -43.7602  -9.0047  -8.8356  -5.2502  -5.2012  -5.1965  -5.1614
    -5.1580  -5.1491  -5.1464  -5.1424  -5.1401  -5.0913  -1.2805   1.4341
     2.1541   2.1708   2.2153   2.6278   2.6473   5.1326   8.1258   8.1690
     8.2482   8.6222   9.2506   9.2653  10.4063  11.1399  11.2599  12.2969

          k = 0.0000 0.0000 0.0395 (  6487 PWs)   bands (ev):

   -43.8674 -43.8637 -43.8393 -43.8380 -43.8356 -43.8339 -43.7645 -43.7643
   -43.7607 -43.7605  -8.9634  -8.8787  -5.2206  -5.1921  -5.1885  -5.1719
    -5.1696  -5.1485  -5.1455  -5.1423  -5.1404  -5.1400  -0.8561   0.2418
     2.2719   2.3145   2.5025   2.5305   3.4706   4.7303   7.9439   8.1339
     8.3674   8.3970   8.8995   8.9187  11.1376  11.5885  11.7099  12.1980

          k = 0.0003 0.0822 0.0000 (  6500 PWs)   bands (ev):

   -43.8675 -43.8638 -43.8393 -43.8380 -43.8356 -43.8339 -43.7646 -43.7643
   -43.7608 -43.7605  -8.8973  -8.7992  -5.2875  -5.2310  -5.2071  -5.1732
    -5.1523  -5.1424  -5.1294  -5.1215  -5.0526  -4.9886  -0.7147   0.5805
     1.0017   1.3046   1.8026   2.4755   4.1252   5.5987   6.2952   7.3693
     7.6625   8.9605   9.6203   9.8202  10.2692  11.1993  11.5234  12.6334

          k = 0.0003 0.0822 0.0395 (  6503 PWs)   bands (ev):

   -43.8676 -43.8639 -43.8392 -43.8379 -43.8355 -43.8338 -43.7646 -43.7643
   -43.7608 -43.7605  -8.8727  -8.8240  -5.2707  -5.2430  -5.1924  -5.1690
    -5.1606  -5.1557  -5.1278  -5.1202  -5.0434  -5.0123  -0.5071   0.0419
     1.2348   1.5643   1.9503   2.2840   4.1292   4.9583   6.8161   7.2772
     8.1278   8.9720   9.1698   9.2221  10.6723  11.3047  12.0333  12.8572

          k = 0.0003 0.0822-0.0395 (  6500 PWs)   bands (ev):

   -43.8676 -43.8639 -43.8392 -43.8379 -43.8355 -43.8338 -43.7646 -43.7643
   -43.7608 -43.7605  -8.8734  -8.8234  -5.2708  -5.2426  -5.1922  -5.1688
    -5.1608  -5.1561  -5.1273  -5.1205  -5.0437  -5.0121  -0.5134   0.0505
     1.2350   1.5630   1.9510   2.2831   4.1255   4.9593   6.8154   7.2805
     8.1297   8.9617   9.1685   9.2311  10.6669  11.3155  12.0329  12.8571

          k = 0.0708 0.0413 0.0000 (  6497 PWs)   bands (ev):

   -43.8675 -43.8638 -43.8393 -43.8380 -43.8355 -43.8339 -43.7647 -43.7643
   -43.7608 -43.7605  -8.8975  -8.8007  -5.2890  -5.2300  -5.2059  -5.1718
    -5.1517  -5.1426  -5.1307  -5.1227  -5.0526  -4.9877  -0.7199   0.5703
     0.9952   1.2959   1.8198   2.4852   4.1319   5.6168   6.2913   7.3729
     7.6862   8.9703   9.6379   9.8261  10.2395  11.1922  11.5352  12.6455

          k = 0.0708 0.0413 0.0395 (  6505 PWs)   bands (ev):

   -43.8676 -43.8639 -43.8393 -43.8379 -43.8356 -43.8338 -43.7647 -43.7644
   -43.7608 -43.7606  -8.8732  -8.8252  -5.2715  -5.2419  -5.1916  -5.1676
    -5.1607  -5.1552  -5.1285  -5.1217  -5.0440  -5.0118  -0.5127   0.0352
     1.2230   1.5581   1.9657   2.2963   4.1373   4.9638   6.8146   7.2941
     8.1450   8.9747   9.1811   9.2478  10.6440  11.2867  12.0392  12.8709

          k = 0.0708 0.0413-0.0395 (  6504 PWs)   bands (ev):

   -43.8676 -43.8639 -43.8392 -43.8379 -43.8355 -43.8339 -43.7646 -43.7644
   -43.7608 -43.7606  -8.8739  -8.8244  -5.2712  -5.2422  -5.1915  -5.1678
    -5.1606  -5.1549  -5.1289  -5.1214  -5.0436  -5.0123  -0.5195   0.0428
     1.2283   1.5543   1.9668   2.2950   4.1260   4.9712   6.8275   7.2818
     8.1484   8.9804   9.1809   9.2393  10.6399  11.2856  12.0429  12.8641

          k = 0.0711 0.1235 0.0000 (  6501 PWs)   bands (ev):

   -43.8675 -43.8638 -43.8391 -43.8378 -43.8354 -43.8337 -43.7646 -43.7645
   -43.7608 -43.7607  -8.8169  -8.8103  -5.2701  -5.2667  -5.2266  -5.1506
    -5.1475  -5.1447  -5.1344  -5.1259  -4.9678  -4.9659  -0.0101  -0.0004
     1.0113   1.0408   1.0482   1.9463   5.3446   5.3730   5.8321   7.4773
     7.4948   8.0937  10.0857  10.1202  11.0638  11.7024  12.1501  12.1992

          k = 0.0711 0.1236 0.0396 (  6531 PWs)   bands (ev):

   -43.8676 -43.8640 -43.8393 -43.8380 -43.8356 -43.8339 -43.7647 -43.7646
   -43.7609 -43.7607  -8.8162  -8.8103  -5.2642  -5.2618  -5.2075  -5.1678
    -5.1521  -5.1468  -5.1343  -5.1263  -4.9724  -4.9714  -0.1696  -0.1582
     1.2035   1.3890   1.3959   1.6586   4.7532   4.7794   6.4038   7.5261
     7.8847   7.9019  10.4732  10.4956  10.9353  10.9961  12.1824  12.2087

          k = 0.0711 0.1235-0.0395 (  6535 PWs)   bands (ev):

   -43.8677 -43.8640 -43.8393 -43.8380 -43.8356 -43.8339 -43.7647 -43.7646
   -43.7609 -43.7607  -8.8164  -8.8102  -5.2642  -5.2619  -5.2075  -5.1678
    -5.1521  -5.1468  -5.1343  -5.1263  -4.9725  -4.9714  -0.1685  -0.1594
     1.2037   1.3911   1.3937   1.6586   4.7530   4.7795   6.4035   7.5264
     7.8845   7.9021  10.4724  10.4967  10.9341  10.9969  12.1862  12.2050

          k = 0.0705-0.0409 0.0000 (  6499 PWs)   bands (ev):

   -43.8676 -43.8639 -43.8391 -43.8380 -43.8355 -43.8339 -43.7645 -43.7645
   -43.7607 -43.7607  -8.8986  -8.8033  -5.2916  -5.2292  -5.2042  -5.1713
    -5.1531  -5.1428  -5.1293  -5.1210  -5.0540  -4.9875  -0.7298   0.5530
     0.9829   1.2814   1.8519   2.5056   4.1442   5.6438   6.2927   7.3833
     7.7320   8.9760   9.6561   9.8449  10.2007  11.1830  11.5563  12.6671

          k = 0.0706-0.0409 0.0395 (  6499 PWs)   bands (ev):

   -43.8677 -43.8640 -43.8392 -43.8378 -43.8355 -43.8337 -43.7646 -43.7645
   -43.7608 -43.7607  -8.8749  -8.8271  -5.2725  -5.2422  -5.1902  -5.1674
    -5.1601  -5.1553  -5.1274  -5.1199  -5.0453  -5.0133  -0.5274   0.0241
     1.2135   1.5445   1.9961   2.3198   4.1330   4.9800   6.8394   7.3028
     8.1893   9.0011   9.2089   9.2517  10.6048  11.2504  12.0607  12.8900

          k = 0.0705-0.0409-0.0395 (  6495 PWs)   bands (ev):

   -43.8676 -43.8639 -43.8392 -43.8378 -43.8355 -43.8337 -43.7646 -43.7645
   -43.7608 -43.7607  -8.8750  -8.8270  -5.2730  -5.2415  -5.1901  -5.1671
    -5.1603  -5.1556  -5.1270  -5.1201  -5.0459  -5.0128  -0.5281   0.0250
     1.2112   1.5466   1.9961   2.3197   4.1380   4.9742   6.8323   7.3115
     8.1895   8.9934   9.2069   9.2609  10.6036  11.2567  12.0566  12.8919

     the Fermi energy is     2.6402 ev

!    total energy              =    -717.71092891 Ry
     Harris-Foulkes estimate   =    -717.71092920 Ry
     estimated scf accuracy    <       0.00000066 Ry

     total magnetization       =    -0.00 Bohr mag/cell
     absolute magnetization    =     0.00 Bohr mag/cell

     convergence has been achieved in   3 iterations

     Forces acting on atoms (cartesian axes, Ry/au):

     atom    1 type  1   force =     0.00063871   -0.00079967   -0.05496326
     atom    2 type  1   force =    -0.00091517    0.00051923   -0.05409405
     atom    3 type  2   force =     0.00015490    0.00038455    0.05471543
     atom    4 type  2   force =     0.00012156   -0.00010411    0.05434188

     Total force =     0.109070     Total SCF correction =     0.004368

     Entering Dynamics:    iteration =     3
                           time      =   0.0030 pico-seconds


     Andersen thermostat:    4 collisions

ATOMIC_POSITIONS (alat)
Cd            0.0021238911        2.6768169595        8.7955852644
Cd            2.3384350270        1.3621073686        4.5772123997
Se           -0.0091469347        2.7100914770        2.8877413130
Se            2.3518767431        1.3455674421        7.1019273533


     kinetic energy (Ekin) =           0.01909208 Ry
     temperature           =         669.86622374 K 
     Ekin + Etot (const)   =        -717.69183683 Ry
     Message from routine dynamics:
     Total linear momentum <> 0

     Linear momentum :    4.2063632244    6.5708628742   -0.6767584198

     Writing output data file ./x0.save/
     NEW-OLD atomic charge density approx. for the potential

     total cpu time spent up to now is      433.4 secs

     Self-consistent Calculation

     iteration #  1     ecut=    50.00 Ry     beta= 0.45
     Davidson diagonalization with overlap
     ethr =  1.00E-06,  avg # of iterations =  4.0

     Threshold (ethr) on eigenvalues was too large:
     Diagonalizing with lowered threshold

     Davidson diagonalization with overlap
     ethr =  1.12E-08,  avg # of iterations =  2.0
 
     Magnetic moment per site:
     atom:    1    charge:    9.6027    magn:    0.0000    constr:    0.0000
     atom:    2    charge:    9.6036    magn:    0.0000    constr:    0.0000
     atom:    3    charge:   13.6926    magn:   -0.0002    constr:    0.0000
     atom:    4    charge:   13.6945    magn:   -0.0002    constr:    0.0000

     total cpu time spent up to now is      494.5 secs

     End of self-consistent calculation

 ------ SPIN UP ------------


          k = 0.0000 0.0000 0.0000 (  6451 PWs)   bands (ev):

   -43.8682 -43.8641 -43.8397 -43.8381 -43.8355 -43.8341 -43.7648 -43.7643
   -43.7610 -43.7606  -9.0086  -8.8391  -5.2513  -5.2026  -5.1982  -5.1613
    -5.1577  -5.1507  -5.1483  -5.1447  -5.1423  -5.0931  -1.2838   1.4282
     2.1581   2.1713   2.2142   2.6289   2.6484   5.1387   8.1260   8.1686
     8.2499   8.6305   9.2501   9.2718  10.4050  11.1401  11.2569  12.2982

          k = 0.0000 0.0000 0.0395 (  6487 PWs)   bands (ev):

   -43.8680 -43.8640 -43.8399 -43.8383 -43.8358 -43.8344 -43.7649 -43.7646
   -43.7611 -43.7609  -8.9673  -8.8822  -5.2218  -5.1933  -5.1900  -5.1729
    -5.1708  -5.1496  -5.1462  -5.1437  -5.1428  -5.1420  -0.8594   0.2385
     2.2732   2.3138   2.5038   2.5310   3.4719   4.7344   7.9477   8.1394
     8.3673   8.3985   8.8991   8.9234  11.1380  11.5891  11.7060  12.1996

          k = 0.0003 0.0822 0.0000 (  6500 PWs)   bands (ev):

   -43.8682 -43.8641 -43.8399 -43.8382 -43.8357 -43.8344 -43.7650 -43.7646
   -43.7612 -43.7609  -8.9013  -8.8029  -5.2894  -5.2330  -5.2091  -5.1743
    -5.1540  -5.1443  -5.1278  -5.1248  -5.0536  -4.9897  -0.7164   0.5811
     1.0014   1.3027   1.8035   2.4777   4.1280   5.6010   6.2934   7.3702
     7.6588   8.9604   9.6265   9.8190  10.2720  11.2013  11.5224  12.6356

          k = 0.0003 0.0822 0.0395 (  6503 PWs)   bands (ev):

   -43.8683 -43.8642 -43.8398 -43.8381 -43.8357 -43.8343 -43.7650 -43.7647
   -43.7612 -43.7610  -8.8764  -8.8280  -5.2728  -5.2446  -5.1943  -5.1699
    -5.1625  -5.1579  -5.1251  -5.1245  -5.0446  -5.0130  -0.5060   0.0368
     1.2334   1.5672   1.9511   2.2862   4.1349   4.9535   6.8109   7.2863
     8.1235   8.9723   9.1706   9.2258  10.6762  11.3057  12.0316  12.8610

          k = 0.0003 0.0822-0.0395 (  6500 PWs)   bands (ev):

   -43.8682 -43.8642 -43.8398 -43.8381 -43.8357 -43.8343 -43.7650 -43.7646
   -43.7612 -43.7609  -8.8776  -8.8267  -5.2723  -5.2448  -5.1941  -5.1699
    -5.1628  -5.1580  -5.1255  -5.1241  -5.0443  -5.0135  -0.5180   0.0528
     1.2383   1.5608   1.9524   2.2846   4.1200   4.9637   6.8228   7.2767
     8.1280   8.9664   9.1644   9.2338  10.6666  11.3171  12.0374  12.8581

          k = 0.0708 0.0413 0.0000 (  6497 PWs)   bands (ev):

   -43.8682 -43.8641 -43.8398 -43.8382 -43.8357 -43.8344 -43.7650 -43.7646
   -43.7613 -43.7609  -8.9015  -8.8043  -5.2909  -5.2321  -5.2078  -5.1730
    -5.1533  -5.1445  -5.1292  -5.1258  -5.0536  -4.9889  -0.7218   0.5714
     0.9956   1.2937   1.8206   2.4874   4.1340   5.6194   6.2885   7.3741
     7.6825   8.9711   9.6443   9.8255  10.2416  11.1945  11.5345  12.6480

          k = 0.0708 0.0413 0.0395 (  6505 PWs)   bands (ev):

   -43.8683 -43.8642 -43.8399 -43.8382 -43.8358 -43.8343 -43.7650 -43.7647
   -43.7613 -43.7610  -8.8771  -8.8289  -5.2732  -5.2440  -5.1934  -5.1689
    -5.1625  -5.1569  -5.1266  -5.1253  -5.0448  -5.0132  -0.5140   0.0334
     1.2247   1.5579   1.9668   2.2980   4.1367   4.9647   6.8166   7.2939
     8.1423   8.9816   9.1771   9.2500  10.6458  11.2855  12.0411  12.8729

          k = 0.0708 0.0413-0.0395 (  6504 PWs)   bands (ev):

   -43.8683 -43.8642 -43.8398 -43.8382 -43.8357 -43.8343 -43.7650 -43.7647
   -43.7612 -43.7610  -8.8779  -8.8280  -5.2731  -5.2439  -5.1934  -5.1688
    -5.1625  -5.1569  -5.1263  -5.1256  -5.0449  -5.0133  -0.5217   0.0426
     1.2283   1.5550   1.9679   2.2967   4.1266   4.9706   6.8260   7.2866
     8.1452   8.9783   9.1832   9.2436  10.6404  11.2894  12.0438  12.8666

          k = 0.0711 0.1235 0.0000 (  6501 PWs)   bands (ev):

   -43.8682 -43.8641 -43.8397 -43.8381 -43.8356 -43.8342 -43.7650 -43.7648
   -43.7612 -43.7611  -8.8217  -8.8132  -5.2721  -5.2689  -5.2288  -5.1503
    -5.1491  -5.1479  -5.1330  -5.1289  -4.9689  -4.9670  -0.0097  -0.0004
     1.0124   1.0409   1.0481   1.9495   5.3530   5.3658   5.8278   7.4778
     7.4859   8.0917  10.0930  10.1292  11.0652  11.7042  12.1572  12.2037

          k = 0.0711 0.1236 0.0396 (  6531 PWs)   bands (ev):

   -43.8683 -43.8643 -43.8399 -43.8382 -43.8358 -43.8344 -43.7651 -43.7649
   -43.7613 -43.7612  -8.8212  -8.8131  -5.2661  -5.2640  -5.2095  -5.1699
    -5.1518  -5.1500  -5.1321  -5.1300  -4.9735  -4.9725  -0.1719  -0.1559
     1.2046   1.3883   1.3981   1.6608   4.7562   4.7740   6.4003   7.5236
     7.8890   7.8955  10.4829  10.5003  10.9370  10.9961  12.1872  12.2110

          k = 0.0711 0.1235-0.0395 (  6535 PWs)   bands (ev):

   -43.8684 -43.8643 -43.8399 -43.8382 -43.8358 -43.8344 -43.7651 -43.7649
   -43.7613 -43.7612  -8.8214  -8.8130  -5.2661  -5.2640  -5.2095  -5.1699
    -5.1519  -5.1500  -5.1321  -5.1300  -4.9736  -4.9725  -0.1699  -0.1580
     1.2048   1.3905   1.3959   1.6608   4.7564   4.7738   6.3999   7.5240
     7.8890   7.8955  10.4822  10.5015  10.9355  10.9970  12.1915  12.2069

          k = 0.0705-0.0409 0.0000 (  6499 PWs)   bands (ev):

   -43.8683 -43.8642 -43.8398 -43.8382 -43.8356 -43.8344 -43.7649 -43.7648
   -43.7612 -43.7611  -8.9027  -8.8068  -5.2933  -5.2312  -5.2063  -5.1724
    -5.1546  -5.1447  -5.1278  -5.1242  -5.0551  -4.9889  -0.7322   0.5568
     0.9849   1.2800   1.8516   2.5075   4.1433   5.6453   6.2883   7.3835
     7.7282   8.9774   9.6602   9.8463  10.2044  11.1880  11.5552  12.6701

          k = 0.0706-0.0409 0.0395 (  6499 PWs)   bands (ev):

   -43.8683 -43.8643 -43.8398 -43.8381 -43.8357 -43.8342 -43.7649 -43.7649
   -43.7612 -43.7611  -8.8793  -8.8304  -5.2743  -5.2440  -5.1922  -5.1682
    -5.1622  -5.1573  -5.1250  -5.1240  -5.0467  -5.0145  -0.5314   0.0283
     1.2155   1.5446   1.9965   2.3207   4.1294   4.9819   6.8386   7.3031
     8.1873   8.9977   9.2088   9.2569  10.6048  11.2589  12.0631  12.8925

          k = 0.0705-0.0409-0.0395 (  6495 PWs)   bands (ev):

   -43.8683 -43.8643 -43.8398 -43.8380 -43.8357 -43.8342 -43.7649 -43.7649
   -43.7612 -43.7611  -8.8788  -8.8308  -5.2748  -5.2435  -5.1922  -5.1682
    -5.1622  -5.1573  -5.1252  -5.1238  -5.0468  -5.0142  -0.5270   0.0219
     1.2126   1.5486   1.9961   2.3212   4.1396   4.9727   6.8292   7.3117
     8.1861   8.9985   9.2065   9.2600  10.6087  11.2569  12.0569  12.8943

 ------ SPIN DOWN ----------


          k = 0.0000 0.0000 0.0000 (  6451 PWs)   bands (ev):

   -43.8682 -43.8642 -43.8397 -43.8382 -43.8355 -43.8342 -43.7649 -43.7644
   -43.7611 -43.7607  -9.0089  -8.8395  -5.2513  -5.2026  -5.1982  -5.1613
    -5.1577  -5.1507  -5.1483  -5.1447  -5.1423  -5.0931  -1.2838   1.4281
     2.1580   2.1711   2.2138   2.6284   2.6479   5.1388   8.1261   8.1687
     8.2499   8.6305   9.2502   9.2719  10.4050  11.1400  11.2568  12.2982

          k = 0.0000 0.0000 0.0395 (  6487 PWs)   bands (ev):

   -43.8681 -43.8640 -43.8400 -43.8383 -43.8358 -43.8345 -43.7650 -43.7647
   -43.7612 -43.7610  -8.9676  -8.8826  -5.2218  -5.1933  -5.1900  -5.1729
    -5.1708  -5.1496  -5.1462  -5.1437  -5.1428  -5.1420  -0.8594   0.2385
     2.2728   2.3133   2.5034   2.5305   3.4719   4.7344   7.9477   8.1394
     8.3674   8.3986   8.8991   8.9234  11.1380  11.5890  11.7059  12.1996

          k = 0.0003 0.0822 0.0000 (  6500 PWs)   bands (ev):

   -43.8682 -43.8642 -43.8399 -43.8383 -43.8358 -43.8344 -43.7651 -43.7647
   -43.7613 -43.7610  -8.9017  -8.8033  -5.2894  -5.2330  -5.2091  -5.1743
    -5.1540  -5.1443  -5.1278  -5.1248  -5.0536  -4.9898  -0.7164   0.5809
     1.0011   1.3025   1.8031   2.4773   4.1279   5.6010   6.2934   7.3702
     7.6589   8.9604   9.6264   9.8191  10.2719  11.2013  11.5224  12.6355

          k = 0.0003 0.0822 0.0395 (  6503 PWs)   bands (ev):

   -43.8683 -43.8643 -43.8399 -43.8382 -43.8358 -43.8344 -43.7651 -43.7647
   -43.7613 -43.7610  -8.8768  -8.8283  -5.2728  -5.2446  -5.1943  -5.1699
    -5.1625  -5.1579  -5.1251  -5.1245  -5.0446  -5.0130  -0.5060   0.0368
     1.2331   1.5669   1.9507   2.2858   4.1349   4.9535   6.8109   7.2862
     8.1236   8.9723   9.1707   9.2258  10.6761  11.3056  12.0315  12.8608

          k = 0.0003 0.0822-0.0395 (  6500 PWs)   bands (ev):

   -43.8683 -43.8643 -43.8399 -43.8382 -43.8358 -43.8344 -43.7650 -43.7647
   -43.7613 -43.7610  -8.8780  -8.8271  -5.2723  -5.2448  -5.1940  -5.1699
    -5.1628  -5.1580  -5.1255  -5.1241  -5.0443  -5.0135  -0.5180   0.0528
     1.2380   1.5605   1.9520   2.2841   4.1199   4.9637   6.8228   7.2767
     8.1281   8.9664   9.1644   9.2338  10.6666  11.3170  12.0374  12.8580

          k = 0.0708 0.0413 0.0000 (  6497 PWs)   bands (ev):

   -43.8682 -43.8642 -43.8399 -43.8383 -43.8358 -43.8344 -43.7651 -43.7647
   -43.7614 -43.7610  -8.9018  -8.8047  -5.2909  -5.2321  -5.2078  -5.1729
    -5.1532  -5.1445  -5.1291  -5.1258  -5.0536  -4.9889  -0.7218   0.5713
     0.9953   1.2935   1.8202   2.4870   4.1338   5.6193   6.2886   7.3741
     7.6827   8.9711   9.6443   9.8255  10.2416  11.1944  11.5345  12.6479

          k = 0.0708 0.0413 0.0395 (  6505 PWs)   bands (ev):

   -43.8683 -43.8643 -43.8399 -43.8382 -43.8358 -43.8344 -43.7651 -43.7648
   -43.7613 -43.7611  -8.8775  -8.8292  -5.2732  -5.2440  -5.1934  -5.1689
    -5.1625  -5.1568  -5.1266  -5.1253  -5.0449  -5.0132  -0.5140   0.0333
     1.2244   1.5576   1.9663   2.2976   4.1367   4.9647   6.8166   7.2938
     8.1424   8.9815   9.1771   9.2500  10.6457  11.2855  12.0411  12.8728

          k = 0.0708 0.0413-0.0395 (  6504 PWs)   bands (ev):

   -43.8683 -43.8643 -43.8399 -43.8383 -43.8358 -43.8344 -43.7650 -43.7648
   -43.7613 -43.7611  -8.8783  -8.8284  -5.2731  -5.2439  -5.1934  -5.1688
    -5.1624  -5.1569  -5.1263  -5.1256  -5.0449  -5.0133  -0.5217   0.0425
     1.2280   1.5547   1.9675   2.2962   4.1266   4.9706   6.8260   7.2866
     8.1453   8.9783   9.1832   9.2436  10.6403  11.2894  12.0437  12.8665

          k = 0.0711 0.1235 0.0000 (  6501 PWs)   bands (ev):

   -43.8682 -43.8642 -43.8397 -43.8381 -43.8356 -43.8343 -43.7651 -43.7649
   -43.7613 -43.7612  -8.8221  -8.8136  -5.2721  -5.2689  -5.2288  -5.1503
    -5.1491  -5.1479  -5.1329  -5.1289  -4.9690  -4.9670  -0.0098  -0.0005
     1.0121   1.0406   1.0479   1.9490   5.3528   5.3657   5.8279   7.4778
     7.4860   8.0916  10.0930  10.1292  11.0650  11.7041  12.1573  12.2037

          k = 0.0711 0.1236 0.0396 (  6531 PWs)   bands (ev):

   -43.8684 -43.8643 -43.8399 -43.8383 -43.8358 -43.8345 -43.7651 -43.7650
   -43.7614 -43.7613  -8.8216  -8.8135  -5.2661  -5.2640  -5.2095  -5.1699
    -5.1518  -5.1500  -5.1320  -5.1300  -4.9735  -4.9725  -0.1719  -0.1560
     1.2043   1.3881   1.3978   1.6604   4.7561   4.7740   6.4003   7.5235
     7.8890   7.8955  10.4830  10.5004  10.9368  10.9960  12.1872  12.2110

          k = 0.0711 0.1235-0.0395 (  6535 PWs)   bands (ev):

   -43.8684 -43.8644 -43.8399 -43.8383 -43.8359 -43.8345 -43.7652 -43.7650
   -43.7614 -43.7613  -8.8218  -8.8134  -5.2661  -5.2640  -5.2095  -5.1699
    -5.1518  -5.1500  -5.1321  -5.1300  -4.9736  -4.9725  -0.1700  -0.1580
     1.2044   1.3902   1.3957   1.6605   4.7563   4.7737   6.4000   7.5239
     7.8890   7.8955  10.4823  10.5015  10.9353  10.9969  12.1915  12.2069

          k = 0.0705-0.0409 0.0000 (  6499 PWs)   bands (ev):

   -43.8683 -43.8643 -43.8398 -43.8383 -43.8357 -43.8345 -43.7650 -43.7649
   -43.7612 -43.7612  -8.9031  -8.8072  -5.2933  -5.2312  -5.2063  -5.1723
    -5.1546  -5.1447  -5.1278  -5.1242  -5.0551  -4.9890  -0.7322   0.5566
     0.9846   1.2798   1.8512   2.5070   4.1432   5.6452   6.2883   7.3835
     7.7283   8.9774   9.6602   9.8463  10.2044  11.1879  11.5552  12.6700

          k = 0.0706-0.0409 0.0395 (  6499 PWs)   bands (ev):

   -43.8684 -43.8643 -43.8399 -43.8381 -43.8358 -43.8343 -43.7650 -43.7650
   -43.7613 -43.7612  -8.8797  -8.8308  -5.2743  -5.2440  -5.1922  -5.1682
    -5.1622  -5.1573  -5.1249  -5.1240  -5.0467  -5.0145  -0.5314   0.0283
     1.2152   1.5444   1.9961   2.3202   4.1294   4.9819   6.8386   7.3031
     8.1874   8.9977   9.2088   9.2569  10.6047  11.2589  12.0631  12.8924

          k = 0.0705-0.0409-0.0395 (  6495 PWs)   bands (ev):

   -43.8684 -43.8643 -43.8398 -43.8381 -43.8357 -43.8342 -43.7650 -43.7649
   -43.7613 -43.7612  -8.8792  -8.8312  -5.2748  -5.2435  -5.1922  -5.1681
    -5.1622  -5.1573  -5.1252  -5.1238  -5.0468  -5.0142  -0.5271   0.0219
     1.2124   1.5483   1.9956   2.3207   4.1396   4.9727   6.8292   7.3117
     8.1861   8.9985   9.2065   9.2600  10.6086  11.2569  12.0569  12.8941

     the Fermi energy is     2.6405 ev

!    total energy              =    -717.71017320 Ry
     Harris-Foulkes estimate   =    -717.71017647 Ry
     estimated scf accuracy    <       0.00000637 Ry

     total magnetization       =    -0.00 Bohr mag/cell
     absolute magnetization    =     0.00 Bohr mag/cell

     convergence has been achieved in   1 iterations

     Forces acting on atoms (cartesian axes, Ry/au):

     atom    1 type  1   force =     0.00157815   -0.00199831   -0.05752569
     atom    2 type  1   force =    -0.00153114    0.00118457   -0.05934951
     atom    3 type  2   force =    -0.00045441    0.00090728    0.05820424
     atom    4 type  2   force =     0.00040740   -0.00009354    0.05867096

     Total force =     0.116932     Total SCF correction =     0.013388
     SCF correction compared to forces is large: reduce conv_thr to get better values

     Entering Dynamics:    iteration =     4
                           time      =   0.0040 pico-seconds


     Andersen thermostat:    4 collisions

ATOMIC_POSITIONS (alat)
Cd            0.0037157575        2.6766657496        8.7966413528
Cd            2.3382849753        1.3608970229        4.5769466120
Se           -0.0092950998        2.7115792695        2.8862545518
Se            2.3498079356        1.3461732138        7.1021989270


     kinetic energy (Ekin) =           0.00646236 Ry
     temperature           =         226.73898375 K 
     Ekin + Etot (const)   =        -717.70371084 Ry
     Message from routine dynamics:
     Total linear momentum <> 0

     Linear momentum :   14.5399163520    0.6425469965   -5.2343600306

     Writing output data file ./x0.save/
     NEW-OLD atomic charge density approx. for the potential

     total cpu time spent up to now is      506.3 secs

     Self-consistent Calculation

     iteration #  1     ecut=    50.00 Ry     beta= 0.45
     Davidson diagonalization with overlap
     ethr =  1.00E-06,  avg # of iterations =  3.1

     Threshold (ethr) on eigenvalues was too large:
     Diagonalizing with lowered threshold

     Davidson diagonalization with overlap
     ethr =  3.21E-08,  avg # of iterations =  1.6

     total cpu time spent up to now is      562.0 secs

     total energy              =    -717.70995977 Ry
     Harris-Foulkes estimate   =    -717.70997074 Ry
     estimated scf accuracy    <       0.00001811 Ry

     total magnetization       =    -0.00 Bohr mag/cell
     absolute magnetization    =     0.00 Bohr mag/cell

     iteration #  2     ecut=    50.00 Ry     beta= 0.45
     Davidson diagonalization with overlap
     ethr =  3.23E-08,  avg # of iterations =  2.0

     total cpu time spent up to now is      585.0 secs

     total energy              =    -717.70996269 Ry
     Harris-Foulkes estimate   =    -717.70997191 Ry
     estimated scf accuracy    <       0.00002753 Ry

     total magnetization       =    -0.00 Bohr mag/cell
     absolute magnetization    =     0.00 Bohr mag/cell

     iteration #  3     ecut=    50.00 Ry     beta= 0.45
     Davidson diagonalization with overlap
     ethr =  3.23E-08,  avg # of iterations =  1.1
 
     Magnetic moment per site:
     atom:    1    charge:    9.6031    magn:    0.0000    constr:    0.0000
     atom:    2    charge:    9.6036    magn:    0.0000    constr:    0.0000
     atom:    3    charge:   13.6933    magn:   -0.0001    constr:    0.0000
     atom:    4    charge:   13.6933    magn:   -0.0001    constr:    0.0000

     total cpu time spent up to now is      606.2 secs

     End of self-consistent calculation

 ------ SPIN UP ------------


          k = 0.0000 0.0000 0.0000 (  6451 PWs)   bands (ev):

   -43.8671 -43.8636 -43.8380 -43.8373 -43.8351 -43.8331 -43.7631 -43.7627
   -43.7597 -43.7593  -9.0088  -8.8394  -5.2534  -5.2048  -5.2002  -5.1633
    -5.1599  -5.1529  -5.1502  -5.1469  -5.1446  -5.0953  -1.2846   1.4269
     2.1571   2.1727   2.2145   2.6298   2.6490   5.1381   8.1253   8.1682
     8.2508   8.6321   9.2505   9.2713  10.4040  11.1395  11.2572  12.2986

          k = 0.0000 0.0000 0.0395 (  6487 PWs)   bands (ev):

   -43.8669 -43.8635 -43.8382 -43.8375 -43.8355 -43.8333 -43.7632 -43.7630
   -43.7598 -43.7596  -8.9674  -8.8827  -5.2239  -5.1955  -5.1919  -5.1750
    -5.1730  -5.1516  -5.1481  -5.1462  -5.1450  -5.1441  -0.8602   0.2376
     2.2737   2.3143   2.5045   2.5317   3.4712   4.7336   7.9489   8.1404
     8.3672   8.3978   8.8997   8.9227  11.1374  11.5881  11.7064  12.1992

          k = 0.0003 0.0822 0.0000 (  6500 PWs)   bands (ev):

   -43.8670 -43.8636 -43.8381 -43.8375 -43.8354 -43.8333 -43.7633 -43.7630
   -43.7600 -43.7596  -8.9014  -8.8034  -5.2916  -5.2353  -5.2111  -5.1764
    -5.1561  -5.1464  -5.1299  -5.1269  -5.0555  -4.9918  -0.7169   0.5802
     1.0011   1.3020   1.8044   2.4788   4.1288   5.6001   6.2930   7.3701
     7.6578   8.9603   9.6282   9.8180  10.2721  11.2017  11.5220  12.6360

          k = 0.0003 0.0822 0.0395 (  6503 PWs)   bands (ev):

   -43.8671 -43.8637 -43.8380 -43.8374 -43.8354 -43.8332 -43.7633 -43.7630
   -43.7600 -43.7596  -8.8763  -8.8287  -5.2751  -5.2469  -5.1964  -5.1720
    -5.1646  -5.1601  -5.1275  -5.1264  -5.0467  -5.0149  -0.5054   0.0342
     1.2328   1.5678   1.9519   2.2874   4.1362   4.9511   6.8094   7.2877
     8.1220   8.9721   9.1709   9.2278  10.6772  11.3047  12.0308  12.8619

          k = 0.0003 0.0822-0.0395 (  6500 PWs)   bands (ev):

   -43.8671 -43.8637 -43.8380 -43.8374 -43.8354 -43.8332 -43.7633 -43.7630
   -43.7599 -43.7596  -8.8778  -8.8272  -5.2745  -5.2470  -5.1961  -5.1720
    -5.1649  -5.1602  -5.1274  -5.1264  -5.0463  -5.0156  -0.5199   0.0536
     1.2387   1.5600   1.9536   2.2855   4.1179   4.9639   6.8246   7.2757
     8.1275   8.9678   9.1618   9.2352  10.6656  11.3179  12.0389  12.8581

          k = 0.0708 0.0413 0.0000 (  6497 PWs)   bands (ev):

   -43.8670 -43.8636 -43.8381 -43.8374 -43.8354 -43.8333 -43.7634 -43.7630
   -43.7600 -43.7596  -8.9018  -8.8047  -5.2930  -5.2344  -5.2101  -5.1750
    -5.1554  -5.1467  -5.1313  -5.1279  -5.0557  -4.9911  -0.7229   0.5732
     0.9968   1.2937   1.8204   2.4882   4.1320   5.6181   6.2859   7.3737
     7.6813   8.9722   9.6444   9.8264  10.2429  11.1966  11.5343  12.6489

          k = 0.0708 0.0413 0.0395 (  6505 PWs)   bands (ev):

   -43.8671 -43.8637 -43.8381 -43.8374 -43.8354 -43.8333 -43.7633 -43.7631
   -43.7599 -43.7597  -8.8773  -8.8294  -5.2753  -5.2463  -5.1957  -5.1709
    -5.1647  -5.1591  -5.1285  -5.1276  -5.0470  -5.0154  -0.5151   0.0348
     1.2256   1.5583   1.9668   2.2985   4.1345   4.9649   6.8152   7.2918
     8.1418   8.9825   9.1755   9.2499  10.6462  11.2883  12.0421  12.8731

          k = 0.0708 0.0413-0.0395 (  6504 PWs)   bands (ev):

   -43.8671 -43.8637 -43.8381 -43.8374 -43.8354 -43.8333 -43.7633 -43.7631
   -43.7599 -43.7597  -8.8779  -8.8287  -5.2753  -5.2462  -5.1956  -5.1708
    -5.1647  -5.1591  -5.1287  -5.1275  -5.0469  -5.0154  -0.5217   0.0424
     1.2290   1.5557   1.9679   2.2973   4.1267   4.9692   6.8230   7.2857
     8.1439   8.9766   9.1855   9.2436  10.6420  11.2914  12.0435  12.8673

          k = 0.0711 0.1235 0.0000 (  6501 PWs)   bands (ev):

   -43.8670 -43.8636 -43.8380 -43.8373 -43.8352 -43.8331 -43.7633 -43.7632
   -43.7599 -43.7598  -8.8194  -8.8162  -5.2744  -5.2713  -5.2309  -5.1522
    -5.1511  -5.1505  -5.1351  -5.1310  -4.9710  -4.9690  -0.0097  -0.0013
     1.0128   1.0407   1.0483   1.9505   5.3557   5.3623   5.8267   7.4768
     7.4843   8.0913  10.0950  10.1307  11.0655  11.7046  12.1579  12.2045

          k = 0.0711 0.1236 0.0396 (  6531 PWs)   bands (ev):

   -43.8672 -43.8638 -43.8381 -43.8374 -43.8355 -43.8333 -43.7634 -43.7633
   -43.7600 -43.7598  -8.8187  -8.8164  -5.2682  -5.2664  -5.2116  -5.1721
    -5.1532  -5.1530  -5.1342  -5.1321  -4.9757  -4.9744  -0.1727  -0.1559
     1.2051   1.3873   1.3994   1.6617   4.7564   4.7725   6.3993   7.5229
     7.8888   7.8941  10.4848  10.5016  10.9372  10.9962  12.1876  12.2120

          k = 0.0711 0.1235-0.0395 (  6535 PWs)   bands (ev):

   -43.8672 -43.8638 -43.8381 -43.8375 -43.8355 -43.8333 -43.7634 -43.7633
   -43.7600 -43.7599  -8.8191  -8.8160  -5.2681  -5.2665  -5.2116  -5.1721
    -5.1532  -5.1530  -5.1342  -5.1321  -4.9757  -4.9745  -0.1723  -0.1563
     1.2053   1.3894   1.3972   1.6617   4.7547   4.7740   6.3990   7.5233
     7.8890   7.8940  10.4850  10.5018  10.9358  10.9971  12.1917  12.2080

          k = 0.0705-0.0409 0.0000 (  6499 PWs)   bands (ev):

   -43.8671 -43.8637 -43.8380 -43.8375 -43.8353 -43.8333 -43.7632 -43.7632
   -43.7599 -43.7598  -8.9028  -8.8073  -5.2956  -5.2334  -5.2084  -5.1745
    -5.1569  -5.1469  -5.1300  -5.1263  -5.0571  -4.9910  -0.7326   0.5558
     0.9846   1.2793   1.8523   2.5084   4.1447   5.6446   6.2880   7.3835
     7.7271   8.9773   9.6620   9.8452  10.2046  11.1883  11.5547  12.6704

          k = 0.0706-0.0409 0.0395 (  6499 PWs)   bands (ev):

   -43.8672 -43.8638 -43.8381 -43.8373 -43.8354 -43.8332 -43.7633 -43.7632
   -43.7599 -43.7598  -8.8795  -8.8308  -5.2764  -5.2462  -5.1942  -5.1704
    -5.1643  -5.1596  -5.1273  -5.1260  -5.0485  -5.0167  -0.5337   0.0296
     1.2167   1.5430   1.9974   2.3214   4.1275   4.9822   6.8409   7.3017
     8.1869   8.9974   9.2067   9.2605  10.6037  11.2599  12.0643  12.8928

          k = 0.0705-0.0409-0.0395 (  6495 PWs)   bands (ev):

   -43.8672 -43.8638 -43.8380 -43.8372 -43.8353 -43.8331 -43.7633 -43.7632
   -43.7599 -43.7598  -8.8786  -8.8317  -5.2771  -5.2457  -5.1942  -5.1703
    -5.1643  -5.1596  -5.1272  -5.1260  -5.0489  -5.0160  -0.5260   0.0186
     1.2117   1.5501   1.9966   2.3223   4.1412   4.9704   6.8277   7.3140
     8.1844   9.0008   9.2066   9.2592  10.6100  11.2552  12.0563  12.8947

 ------ SPIN DOWN ----------


          k = 0.0000 0.0000 0.0000 (  6451 PWs)   bands (ev):

   -43.8671 -43.8636 -43.8380 -43.8373 -43.8351 -43.8331 -43.7631 -43.7627
   -43.7598 -43.7593  -9.0089  -8.8395  -5.2533  -5.2048  -5.2002  -5.1633
    -5.1599  -5.1529  -5.1502  -5.1469  -5.1446  -5.0953  -1.2846   1.4268
     2.1570   2.1727   2.2143   2.6296   2.6488   5.1381   8.1254   8.1682
     8.2508   8.6321   9.2506   9.2713  10.4039  11.1395  11.2572  12.2986

          k = 0.0000 0.0000 0.0395 (  6487 PWs)   bands (ev):

   -43.8669 -43.8635 -43.8382 -43.8375 -43.8355 -43.8334 -43.7632 -43.7630
   -43.7599 -43.7596  -8.9675  -8.8828  -5.2239  -5.1955  -5.1919  -5.1750
    -5.1730  -5.1516  -5.1481  -5.1462  -5.1450  -5.1441  -0.8602   0.2376
     2.2736   2.3142   2.5044   2.5315   3.4712   4.7336   7.9489   8.1404
     8.3672   8.3979   8.8997   8.9227  11.1374  11.5881  11.7064  12.1992

          k = 0.0003 0.0822 0.0000 (  6500 PWs)   bands (ev):

   -43.8670 -43.8636 -43.8381 -43.8375 -43.8354 -43.8333 -43.7633 -43.7630
   -43.7600 -43.7596  -8.9016  -8.8035  -5.2916  -5.2353  -5.2111  -5.1764
    -5.1561  -5.1464  -5.1299  -5.1269  -5.0555  -4.9918  -0.7169   0.5802
     1.0010   1.3019   1.8043   2.4787   4.1287   5.6001   6.2930   7.3701
     7.6578   8.9603   9.6282   9.8180  10.2721  11.2017  11.5220  12.6360

          k = 0.0003 0.0822 0.0395 (  6503 PWs)   bands (ev):

[...]
     8.1403   8.9830   9.1917   9.2393  10.6485  11.2728  12.0356  12.8676

          k = 0.0711 0.1235 0.0000 (  6501 PWs)   bands (ev):

   -43.8642 -43.8640 -43.8363 -43.8357 -43.8341 -43.8330 -43.7608 -43.7606
   -43.7604 -43.7603  -8.8224  -8.8100  -5.2745  -5.2706  -5.2304  -5.1543
    -5.1510  -5.1481  -5.1379  -5.1284  -4.9708  -4.9689  -0.0134   0.0026
     1.0101   1.0428   1.0500   1.9501   5.3367   5.3817   5.8279   7.4677
     7.4956   8.0919  10.0949  10.1260  11.0646  11.7050  12.1508  12.2093

          k = 0.0711 0.1236 0.0396 (  6531 PWs)   bands (ev):

   -43.8643 -43.8642 -43.8364 -43.8360 -43.8343 -43.8332 -43.7608 -43.7606
   -43.7606 -43.7604  -8.8221  -8.8097  -5.2689  -5.2651  -5.2112  -5.1717
    -5.1556  -5.1503  -5.1377  -5.1288  -4.9762  -4.9736  -0.1796  -0.1486
     1.2052   1.3843   1.4023   1.6619   4.7381   4.7919   6.3996   7.5236
     7.8797   7.9050  10.4723  10.5105  10.9342  10.9982  12.1871  12.2114

          k = 0.0711 0.1235-0.0395 (  6535 PWs)   bands (ev):

   -43.8644 -43.8642 -43.8364 -43.8360 -43.8343 -43.8332 -43.7608 -43.7607
   -43.7606 -43.7605  -8.8218  -8.8101  -5.2683  -5.2658  -5.2112  -5.1717
    -5.1556  -5.1503  -5.1378  -5.1288  -4.9755  -4.9743  -0.1772  -0.1509
     1.2040   1.3840   1.4037   1.6618   4.7411   4.7890   6.4001   7.5233
     7.8784   7.9054  10.4783  10.5042  10.9353  10.9990  12.1782  12.2196

          k = 0.0705-0.0409 0.0000 (  6499 PWs)   bands (ev):

   -43.8643 -43.8641 -43.8362 -43.8360 -43.8342 -43.8332 -43.7607 -43.7606
   -43.7604 -43.7604  -8.9013  -8.8057  -5.2956  -5.2334  -5.2076  -5.1747
    -5.1565  -5.1465  -5.1325  -5.1238  -5.0567  -4.9903  -0.7304   0.5497
     0.9805   1.2790   1.8554   2.5092   4.1505   5.6447   6.2946   7.3839
     7.7294   8.9734   9.6641   9.8410  10.2022  11.1825  11.5548  12.6686

          k = 0.0706-0.0409 0.0395 (  6499 PWs)   bands (ev):

   -43.8643 -43.8642 -43.8363 -43.8359 -43.8341 -43.8330 -43.7607 -43.7606
   -43.7605 -43.7604  -8.8791  -8.8279  -5.2759  -5.2465  -5.1936  -5.1708
    -5.1639  -5.1588  -5.1306  -5.1227  -5.0475  -5.0170  -0.5397   0.0352
     1.2198   1.5360   2.0005   2.3222   4.1172   4.9910   6.8589   7.2935
     8.1906   9.0041   9.1938   9.2662  10.5964  11.2551  12.0696  12.8894

          k = 0.0705-0.0409-0.0395 (  6495 PWs)   bands (ev):

   -43.8643 -43.8642 -43.8363 -43.8358 -43.8341 -43.8329 -43.7607 -43.7606
   -43.7604 -43.7604  -8.8768  -8.8303  -5.2777  -5.2452  -5.1937  -5.1705
    -5.1639  -5.1591  -5.1302  -5.1230  -5.0492  -5.0146  -0.5191   0.0071
     1.2049   1.5541   1.9983   2.3248   4.1548   4.9598   6.8211   7.3301
     8.1815   8.9938   9.2139   9.2630  10.6125  11.2487  12.0499  12.8969

     the Fermi energy is     2.6417 ev

!    total energy              =    -717.71020621 Ry
     Harris-Foulkes estimate   =    -717.71020639 Ry
     estimated scf accuracy    <       0.00000023 Ry

     total magnetization       =    -0.00 Bohr mag/cell
     absolute magnetization    =     0.00 Bohr mag/cell

     convergence has been achieved in   3 iterations

     Forces acting on atoms (cartesian axes, Ry/au):

     atom    1 type  1   force =     0.00029033   -0.00100224   -0.05316929
     atom    2 type  1   force =    -0.00028330    0.00118903   -0.05741409
     atom    3 type  2   force =    -0.00011048   -0.00026552    0.05311997
     atom    4 type  2   force =     0.00010346    0.00007873    0.05746341

     Total force =     0.110679     Total SCF correction =     0.001576

     Entering Dynamics:    iteration =    29
                           time      =   0.0290 pico-seconds


     Andersen thermostat:    4 collisions

ATOMIC_POSITIONS (alat)
Cd            0.0118163138        2.6729346671        8.7961644441
Cd            2.3419104267        1.3713228364        4.5755836799
Se           -0.0162453764        2.7033243427        2.8912405700
Se            2.3387279903        1.3441341440        7.1000418971


     kinetic energy (Ekin) =           0.01053963 Ry
     temperature           =         369.79423246 K 
     Ekin + Etot (const)   =        -717.69966658 Ry
     Message from routine dynamics:
     Total linear momentum <> 0

     Linear momentum :   -6.9236874862   -8.8241290658    2.6614880293

     Writing output data file ./x0.save/
     NEW-OLD atomic charge density approx. for the potential

     total cpu time spent up to now is     2722.0 secs

     Self-consistent Calculation

     iteration #  1     ecut=    50.00 Ry     beta= 0.45
     Davidson diagonalization with overlap
     ethr =  1.00E-06,  avg # of iterations =  4.0

     Threshold (ethr) on eigenvalues was too large:
     Diagonalizing with lowered threshold

     Davidson diagonalization with overlap
     ethr =  1.73E-08,  avg # of iterations =  2.0
 
     Magnetic moment per site:
     atom:    1    charge:    9.6026    magn:   -0.0000    constr:    0.0000
     atom:    2    charge:    9.6038    magn:    0.0000    constr:    0.0000
     atom:    3    charge:   13.6943    magn:   -0.0000    constr:    0.0000
     atom:    4    charge:   13.6911    magn:    0.0000    constr:    0.0000

     total cpu time spent up to now is     2781.7 secs

     End of self-consistent calculation

 ------ SPIN UP ------------


          k = 0.0000 0.0000 0.0000 (  6451 PWs)   bands (ev):

   -43.8735 -43.8564 -43.8451 -43.8433 -43.8286 -43.8254 -43.7699 -43.7695
   -43.7526 -43.7521  -9.0062  -8.8368  -5.2527  -5.2044  -5.1986  -5.1642
    -5.1608  -5.1511  -5.1490  -5.1446  -5.1422  -5.0937  -1.2824   1.4307
     2.1471   2.1718   2.2237   2.6289   2.6492   5.1347   8.1242   8.1683
     8.2512   8.6276   9.2549   9.2637  10.4044  11.1335  11.2652  12.2970

          k = 0.0000 0.0000 0.0395 (  6487 PWs)   bands (ev):

   -43.8733 -43.8563 -43.8454 -43.8435 -43.8288 -43.8256 -43.7700 -43.7698
   -43.7527 -43.7525  -8.9649  -8.8800  -5.2235  -5.1952  -5.1909  -5.1744
    -5.1722  -5.1513  -5.1486  -5.1450  -5.1421  -5.1409  -0.8580   0.2397
     2.2681   2.3195   2.5019   2.5343   3.4707   4.7315   7.9452   8.1361
     8.3712   8.3945   8.9086   8.9134  11.1366  11.5796  11.7160  12.1991

          k = 0.0003 0.0822 0.0000 (  6500 PWs)   bands (ev):

   -43.8734 -43.8564 -43.8453 -43.8434 -43.8288 -43.8256 -43.7702 -43.7698
   -43.7528 -43.7525  -8.8993  -8.8002  -5.2897  -5.2340  -5.2103  -5.1763
    -5.1545  -5.1449  -5.1330  -5.1227  -5.0548  -4.9914  -0.7169   0.5868
     1.0064   1.3056   1.8005   2.4763   4.1203   5.5968   6.2896   7.3671
     7.6600   8.9605   9.6165   9.8252  10.2769  11.2059  11.5230  12.6357

          k = 0.0003 0.0822 0.0395 (  6503 PWs)   bands (ev):

   -43.8735 -43.8565 -43.8453 -43.8434 -43.8287 -43.8255 -43.7701 -43.7698
   -43.7528 -43.7525  -8.8746  -8.8251  -5.2731  -5.2460  -5.1956  -5.1724
    -5.1632  -5.1578  -5.1313  -5.1214  -5.0455  -5.0149  -0.5094   0.0467
     1.2398   1.5658   1.9490   2.2839   4.1237   4.9601   6.8143   7.2702
     8.1259   8.9604   9.1820   9.2187  10.6772  11.3151  12.0358  12.8575

          k = 0.0003 0.0822-0.0395 (  6500 PWs)   bands (ev):

   -43.8735 -43.8565 -43.8453 -43.8434 -43.8287 -43.8255 -43.7701 -43.7698
   -43.7527 -43.7525  -8.8749  -8.8248  -5.2735  -5.2454  -5.1954  -5.1721
    -5.1634  -5.1582  -5.1308  -5.1217  -5.0459  -5.0145  -0.5124   0.0508
     1.2376   1.5675   1.9492   2.2835   4.1259   4.9559   6.8067   7.2796
     8.1281   8.9619   9.1600   9.2369  10.6739  11.3239  12.0315  12.8599

          k = 0.0708 0.0413 0.0000 (  6497 PWs)   bands (ev):

   -43.8735 -43.8564 -43.8452 -43.8435 -43.8288 -43.8256 -43.7702 -43.7698
   -43.7528 -43.7524  -8.8990  -8.8020  -5.2919  -5.2334  -5.2084  -5.1747
    -5.1535  -5.1450  -5.1344  -5.1238  -5.0548  -4.9900  -0.7215   0.5705
     0.9970   1.2943   1.8216   2.4873   4.1316   5.6181   6.2879   7.3722
     7.6849   8.9719   9.6429   9.8263  10.2394  11.1936  11.5356  12.6477

          k = 0.0708 0.0413 0.0395 (  6505 PWs)   bands (ev):

   -43.8736 -43.8565 -43.8453 -43.8435 -43.8288 -43.8256 -43.7701 -43.7699
   -43.7528 -43.7525  -8.8759  -8.8253  -5.2736  -5.2453  -5.1943  -5.1708
    -5.1631  -5.1568  -5.1321  -5.1228  -5.0459  -5.0151  -0.5260   0.0516
     1.2286   1.5506   1.9687   2.2966   4.1198   4.9774   6.8275   7.2815
     8.1478   8.9739   9.1668   9.2634  10.6333  11.2976  12.0485  12.8701

          k = 0.0708 0.0413-0.0395 (  6504 PWs)   bands (ev):

   -43.8736 -43.8565 -43.8453 -43.8435 -43.8287 -43.8256 -43.7701 -43.7699
   -43.7528 -43.7525  -8.8740  -8.8272  -5.2747  -5.2450  -5.1946  -5.1711
    -5.1627  -5.1564  -5.1325  -5.1225  -5.0464  -5.0138  -0.5087   0.0258
     1.2226   1.5627   1.9673   2.2983   4.1423   4.9592   6.8112   7.2940
     8.1413   8.9787   9.1918   9.2399  10.6494  11.2761  12.0352  12.8676

          k = 0.0711 0.1235 0.0000 (  6501 PWs)   bands (ev):

   -43.8734 -43.8564 -43.8451 -43.8433 -43.8286 -43.8254 -43.7701 -43.7700
   -43.7528 -43.7527  -8.8185  -8.8117  -5.2733  -5.2696  -5.2293  -5.1545
    -5.1499  -5.1461  -5.1378  -5.1271  -4.9701  -4.9680  -0.0100  -0.0012
     1.0096   1.0425   1.0501   1.9489   5.3440   5.3736   5.8296   7.4709
     7.4952   8.0925  10.0909  10.1245  11.0641  11.7042  12.1478  12.2086

          k = 0.0711 0.1236 0.0396 (  6531 PWs)   bands (ev):

   -43.8736 -43.8566 -43.8453 -43.8435 -43.8288 -43.8256 -43.7702 -43.7700
   -43.7528 -43.7527  -8.8182  -8.8113  -5.2676  -5.2643  -5.2103  -5.1704
    -5.1560  -5.1481  -5.1378  -5.1274  -4.9755  -4.9728  -0.1781  -0.1502
     1.2047   1.3840   1.4019   1.6611   4.7439   4.7868   6.4008   7.5241
     7.8815   7.9037  10.4726  10.5049  10.9346  10.9977  12.1854  12.2107

          k = 0.0711 0.1235-0.0395 (  6535 PWs)   bands (ev):

   -43.8737 -43.8566 -43.8454 -43.8435 -43.8288 -43.8256 -43.7702 -43.7701
   -43.7529 -43.7527  -8.8175  -8.8120  -5.2667  -5.2653  -5.2103  -5.1704
    -5.1560  -5.1481  -5.1378  -5.1275  -4.9748  -4.9735  -0.1764  -0.1519
     1.2036   1.3839   1.4030   1.6610   4.7468   4.7840   6.4013   7.5238
     7.8803   7.9042  10.4808  10.4964  10.9358  10.9983  12.1768  12.2185

          k = 0.0705-0.0409 0.0000 (  6499 PWs)   bands (ev):

   -43.8736 -43.8565 -43.8453 -43.8434 -43.8286 -43.8257 -43.7701 -43.7700
   -43.7527 -43.7527  -8.8998  -8.8049  -5.2949  -5.2322  -5.2065  -5.1742
    -5.1553  -5.1454  -5.1325  -5.1224  -5.0559  -4.9893  -0.7298   0.5477
     0.9795   1.2789   1.8557   2.5086   4.1512   5.6452   6.2952   7.3846
     7.7305   8.9744   9.6653   9.8396  10.1985  11.1797  11.5561  12.6679

          k = 0.0706-0.0409 0.0395 (  6499 PWs)   bands (ev):

   -43.8736 -43.8566 -43.8452 -43.8434 -43.8287 -43.8255 -43.7701 -43.7700
   -43.7527 -43.7527  -8.8774  -8.8274  -5.2750  -5.2455  -5.1927  -5.1705
    -5.1626  -5.1574  -5.1306  -5.1213  -5.0465  -5.0162  -0.5392   0.0345
     1.2181   1.5350   2.0005   2.3221   4.1197   4.9902   6.8581   7.2951
     8.1911   9.0025   9.1946   9.2688  10.5937  11.2526  12.0689  12.8892

          k = 0.0705-0.0409-0.0395 (  6495 PWs)   bands (ev):

   -43.8736 -43.8566 -43.8452 -43.8433 -43.8287 -43.8254 -43.7701 -43.7700
   -43.7527 -43.7527  -8.8751  -8.8297  -5.2768  -5.2441  -5.1928  -5.1703
    -5.1626  -5.1576  -5.1301  -5.1215  -5.0485  -5.0136  -0.5191   0.0069
     1.2038   1.5529   1.9984   2.3246   4.1542   4.9616   6.8229   7.3288
     8.1824   8.9981   9.2134   9.2608  10.6092  11.2439  12.0497  12.8950

 ------ SPIN DOWN ----------


          k = 0.0000 0.0000 0.0000 (  6451 PWs)   bands (ev):

   -43.8735 -43.8564 -43.8451 -43.8433 -43.8286 -43.8254 -43.7699 -43.7695
   -43.7526 -43.7521  -9.0062  -8.8368  -5.2527  -5.2044  -5.1986  -5.1642
    -5.1608  -5.1511  -5.1490  -5.1446  -5.1422  -5.0937  -1.2824   1.4307
     2.1471   2.1718   2.2237   2.6289   2.6492   5.1347   8.1242   8.1683
     8.2512   8.6276   9.2549   9.2637  10.4044  11.1335  11.2652  12.2970

          k = 0.0000 0.0000 0.0395 (  6487 PWs)   bands (ev):

   -43.8733 -43.8563 -43.8454 -43.8435 -43.8288 -43.8256 -43.7700 -43.7698
   -43.7527 -43.7525  -8.9649  -8.8800  -5.2235  -5.1952  -5.1909  -5.1744
    -5.1722  -5.1513  -5.1486  -5.1450  -5.1421  -5.1409  -0.8580   0.2397
     2.2681   2.3195   2.5019   2.5343   3.4707   4.7315   7.9452   8.1361
     8.3712   8.3945   8.9086   8.9134  11.1366  11.5796  11.7160  12.1991

          k = 0.0003 0.0822 0.0000 (  6500 PWs)   bands (ev):

   -43.8734 -43.8564 -43.8453 -43.8434 -43.8288 -43.8256 -43.7702 -43.7698
   -43.7528 -43.7525  -8.8993  -8.8002  -5.2897  -5.2340  -5.2103  -5.1763
    -5.1545  -5.1449  -5.1330  -5.1227  -5.0548  -4.9914  -0.7169   0.5868
     1.0064   1.3056   1.8005   2.4763   4.1203   5.5968   6.2896   7.3671
     7.6600   8.9605   9.6165   9.8252  10.2769  11.2059  11.5230  12.6357

          k = 0.0003 0.0822 0.0395 (  6503 PWs)   bands (ev):

   -43.8735 -43.8565 -43.8453 -43.8434 -43.8287 -43.8255 -43.7701 -43.7698
   -43.7528 -43.7525  -8.8746  -8.8251  -5.2731  -5.2460  -5.1956  -5.1724
    -5.1632  -5.1578  -5.1313  -5.1214  -5.0455  -5.0149  -0.5094   0.0467
     1.2398   1.5658   1.9490   2.2839   4.1237   4.9601   6.8143   7.2702
     8.1259   8.9604   9.1820   9.2187  10.6772  11.3151  12.0358  12.8575

          k = 0.0003 0.0822-0.0395 (  6500 PWs)   bands (ev):

   -43.8735 -43.8565 -43.8453 -43.8434 -43.8287 -43.8255 -43.7701 -43.7698
   -43.7527 -43.7525  -8.8749  -8.8248  -5.2735  -5.2454  -5.1954  -5.1721
    -5.1634  -5.1582  -5.1308  -5.1217  -5.0459  -5.0145  -0.5124   0.0508
     1.2376   1.5675   1.9492   2.2835   4.1259   4.9559   6.8067   7.2796
     8.1281   8.9619   9.1600   9.2369  10.6739  11.3239  12.0315  12.8599

          k = 0.0708 0.0413 0.0000 (  6497 PWs)   bands (ev):

   -43.8735 -43.8564 -43.8452 -43.8435 -43.8288 -43.8256 -43.7702 -43.7698
   -43.7528 -43.7524  -8.8990  -8.8020  -5.2919  -5.2334  -5.2084  -5.1747
    -5.1535  -5.1450  -5.1344  -5.1238  -5.0548  -4.9900  -0.7215   0.5705
     0.9970   1.2943   1.8216   2.4873   4.1316   5.6181   6.2879   7.3722
     7.6849   8.9719   9.6429   9.8263  10.2394  11.1936  11.5356  12.6477

          k = 0.0708 0.0413 0.0395 (  6505 PWs)   bands (ev):

   -43.8736 -43.8565 -43.8453 -43.8435 -43.8288 -43.8256 -43.7701 -43.7699
   -43.7528 -43.7525  -8.8759  -8.8253  -5.2736  -5.2453  -5.1943  -5.1708
    -5.1631  -5.1568  -5.1321  -5.1228  -5.0459  -5.0151  -0.5260   0.0516
     1.2286   1.5506   1.9687   2.2966   4.1198   4.9774   6.8275   7.2815
     8.1478   8.9739   9.1668   9.2634  10.6333  11.2976  12.0485  12.8701

          k = 0.0708 0.0413-0.0395 (  6504 PWs)   bands (ev):

   -43.8736 -43.8565 -43.8453 -43.8435 -43.8287 -43.8256 -43.7701 -43.7699
   -43.7528 -43.7525  -8.8740  -8.8272  -5.2747  -5.2450  -5.1946  -5.1711
    -5.1627  -5.1564  -5.1325  -5.1225  -5.0464  -5.0138  -0.5087   0.0258
     1.2226   1.5627   1.9673   2.2983   4.1423   4.9592   6.8112   7.2940
     8.1413   8.9787   9.1918   9.2399  10.6494  11.2761  12.0352  12.8676

          k = 0.0711 0.1235 0.0000 (  6501 PWs)   bands (ev):

   -43.8734 -43.8564 -43.8451 -43.8433 -43.8286 -43.8254 -43.7701 -43.7700
   -43.7528 -43.7527  -8.8185  -8.8117  -5.2733  -5.2696  -5.2293  -5.1545
    -5.1499  -5.1461  -5.1378  -5.1271  -4.9701  -4.9680  -0.0100  -0.0012
     1.0096   1.0425   1.0501   1.9489   5.3440   5.3736   5.8296   7.4709
     7.4952   8.0925  10.0909  10.1245  11.0641  11.7042  12.1478  12.2086

          k = 0.0711 0.1236 0.0396 (  6531 PWs)   bands (ev):

   -43.8736 -43.8566 -43.8453 -43.8435 -43.8288 -43.8256 -43.7702 -43.7700
   -43.7528 -43.7527  -8.8182  -8.8113  -5.2676  -5.2643  -5.2103  -5.1704
    -5.1560  -5.1481  -5.1378  -5.1274  -4.9755  -4.9728  -0.1781  -0.1502
     1.2047   1.3840   1.4019   1.6611   4.7439   4.7868   6.4008   7.5241
     7.8815   7.9037  10.4726  10.5049  10.9346  10.9977  12.1854  12.2107

          k = 0.0711 0.1235-0.0395 (  6535 PWs)   bands (ev):

   -43.8737 -43.8566 -43.8454 -43.8435 -43.8288 -43.8256 -43.7702 -43.7701
   -43.7529 -43.7527  -8.8175  -8.8120  -5.2667  -5.2653  -5.2103  -5.1704
    -5.1560  -5.1481  -5.1378  -5.1275  -4.9748  -4.9735  -0.1764  -0.1519
     1.2036   1.3839   1.4030   1.6610   4.7468   4.7840   6.4013   7.5238
     7.8803   7.9042  10.4808  10.4964  10.9358  10.9983  12.1768  12.2185

          k = 0.0705-0.0409 0.0000 (  6499 PWs)   bands (ev):

   -43.8736 -43.8565 -43.8453 -43.8434 -43.8286 -43.8257 -43.7701 -43.7700
   -43.7527 -43.7527  -8.8998  -8.8049  -5.2949  -5.2322  -5.2065  -5.1742
    -5.1553  -5.1454  -5.1325  -5.1224  -5.0559  -4.9893  -0.7298   0.5477
     0.9795   1.2789   1.8557   2.5086   4.1512   5.6452   6.2952   7.3846
     7.7305   8.9744   9.6653   9.8396  10.1985  11.1797  11.5561  12.6679

          k = 0.0706-0.0409 0.0395 (  6499 PWs)   bands (ev):

   -43.8736 -43.8566 -43.8452 -43.8434 -43.8287 -43.8255 -43.7701 -43.7700
   -43.7527 -43.7527  -8.8774  -8.8274  -5.2750  -5.2455  -5.1927  -5.1705
    -5.1626  -5.1574  -5.1306  -5.1213  -5.0465  -5.0162  -0.5392   0.0345
     1.2181   1.5350   2.0005   2.3221   4.1197   4.9902   6.8581   7.2951
     8.1911   9.0025   9.1946   9.2688  10.5937  11.2526  12.0689  12.8892

          k = 0.0705-0.0409-0.0395 (  6495 PWs)   bands (ev):

   -43.8736 -43.8566 -43.8452 -43.8433 -43.8287 -43.8254 -43.7701 -43.7700
   -43.7527 -43.7527  -8.8751  -8.8297  -5.2768  -5.2441  -5.1928  -5.1703
    -5.1626  -5.1576  -5.1301  -5.1215  -5.0485  -5.0136  -0.5191   0.0069
     1.2038   1.5529   1.9984   2.3246   4.1542   4.9616   6.8229   7.3288
     8.1824   8.9981   9.2134   9.2608  10.6092  11.2439  12.0497  12.8950

     the Fermi energy is     2.6413 ev

!    total energy              =    -717.71047069 Ry
     Harris-Foulkes estimate   =    -717.71047835 Ry
     estimated scf accuracy    <       0.00000972 Ry

     total magnetization       =    -0.00 Bohr mag/cell
     absolute magnetization    =     0.00 Bohr mag/cell

     convergence has been achieved in   1 iterations

     Forces acting on atoms (cartesian axes, Ry/au):

     atom    1 type  1   force =    -0.00176580   -0.00082514   -0.05586841
     atom    2 type  1   force =     0.00174230    0.00097196   -0.05208142
     atom    3 type  2   force =     0.00053417   -0.00000742    0.05821808
     atom    4 type  2   force =    -0.00051068   -0.00013940    0.04973175

     Total force =     0.108188     Total SCF correction =     0.019253
     SCF correction compared to forces is large: reduce conv_thr to get better values

     Entering Dynamics:    iteration =    30
                           time      =   0.0300 pico-seconds


     Andersen thermostat:    4 collisions

ATOMIC_POSITIONS (alat)
Cd            0.0131127760        2.6729072148        8.7982417550
Cd            2.3413939883        1.3708993738        4.5751084682
Se           -0.0173463361        2.7051201780        2.8901605325
Se            2.3386295645        1.3430316473        7.0986585042


     kinetic energy (Ekin) =           0.00635869 Ry
     temperature           =         223.10149879 K 
     Ekin + Etot (const)   =        -717.70411200 Ry
     Message from routine dynamics:
     Total linear momentum <> 0

     Linear momentum :    6.0330444615    6.6959178076    2.2631222721

     Writing output data file ./x0.save/
     NEW-OLD atomic charge density approx. for the potential

     total cpu time spent up to now is     2793.6 secs

     Self-consistent Calculation

     iteration #  1     ecut=    50.00 Ry     beta= 0.45
     Davidson diagonalization with overlap
     ethr =  1.00E-06,  avg # of iterations =  3.1

     total cpu time spent up to now is     2828.7 secs

     total energy              =    -717.70999132 Ry
     Harris-Foulkes estimate   =    -717.71007891 Ry
     estimated scf accuracy    <       0.00013574 Ry

     total magnetization       =    -0.00 Bohr mag/cell
     absolute magnetization    =     0.00 Bohr mag/cell

     iteration #  2     ecut=    50.00 Ry     beta= 0.45
     Davidson diagonalization with overlap
