   26
# Step:     0   Energy:     -133.83469232   Kin. Energy:        0.07125335   Total Energy:     -133.76343897   (Ry)
C       -0.587643675   1.448574170  -0.892947814   0.000019753  -0.000009724  -0.000011852
C        0.303292659   0.555625033  -0.000455404  -0.000015819  -0.000021664  -0.000030360
C       -0.587437833  -0.337133352   0.892868266   0.000033476  -0.000021555   0.000006549
H        0.959844618  -0.077411105  -0.633973336  -0.000023632   0.000093160   0.000053011
H        0.961022654   1.190525530   0.634990463   0.000054904  -0.000012865   0.000014797
C       -1.480746386   0.556077148   1.784245545  -0.000002426   0.000008477   0.000000373
C       -2.373459401   1.448389348   0.892766764   0.000001376  -0.000022046  -0.000000218
H       -2.115006000  -0.078544839   2.440190284   0.000031500   0.000017578  -0.000047921
H       -0.844827493   1.190565814   2.440666790   0.000074267  -0.000010179  -0.000016154
C       -1.480692619   2.340329500   0.000244091   0.000001159   0.000009304   0.000016273
H       -2.116755855   2.997382572  -0.635559221  -0.000085157   0.000034898  -0.000052715
H       -0.845302063   2.996825602   0.635567253   0.000042629  -0.000002233   0.000053250
C       -1.480900937   0.556165586  -1.784464669  -0.000012729   0.000014372  -0.000014982
H        0.055117214   2.090795636  -1.534208003   0.000083227   0.000017788   0.000024721
C       -1.480793377  -1.228133975   0.000365086  -0.000005559   0.000009731   0.000024339
H        0.055206289  -0.979325926   1.536428645   0.000089165  -0.000047141   0.000123322
C       -2.373605917  -0.336721073  -0.892573439  -0.000008392   0.000005931   0.000013106
H       -0.845551027  -1.884603848  -0.634842013   0.000026031   0.000023016  -0.000004901
H       -2.116722216  -1.884333146   0.633870403  -0.000082914   0.000041063  -0.000059873
H       -3.015863370  -0.977942684  -1.534733684  -0.000038304   0.000045075  -0.000010325
C       -3.265240268   0.555948813  -0.000050134  -0.000019355  -0.000000079  -0.000003342
H       -2.115897826   1.191423860  -2.440964351  -0.000027955   0.000047024  -0.000003684
H       -0.845390694  -0.079103778  -2.441274945   0.000036720  -0.000019685  -0.000024390
H       -3.922322850   1.191821046  -0.634462936  -0.000046917   0.000073503   0.000020371
H       -3.015966830   2.090889999   1.533431401  -0.000045201   0.000024079  -0.000076494
H       -3.921411494  -0.078779120   0.634893742   0.000013840   0.000001959   0.000008349
   26
# Step:     1   Energy:     -133.83458593   Kin. Energy:        0.07114731   Total Energy:     -133.76343862   (Ry)
C       -0.587347295   1.448428442  -0.893125695   0.000019757  -0.000009719  -0.000011856
C        0.303055220   0.555300145  -0.000910703  -0.000015826  -0.000021662  -0.000030357
C       -0.586935586  -0.337456801   0.892966654   0.000033480  -0.000021560   0.000006555
H        0.959488034  -0.076009969  -0.633174390  -0.000023732   0.000093334   0.000053187
H        0.961843007   1.190327752   0.635207545   0.000054767  -0.000013075   0.000014585
C       -1.480782718   0.556204311   1.784250966  -0.000002424   0.000008477   0.000000366
C       -2.373438877   1.448058795   0.892763589   0.000001371  -0.000022040  -0.000000214
H       -2.114529267  -0.078276943   2.439469126   0.000031691   0.000017769  -0.000048029
H       -0.843718241   1.190408559   2.440421676   0.000074059  -0.000010381  -0.000016277
C       -1.480675257   2.340468929   0.000488136   0.000001158   0.000009298   0.000016271
H       -2.118028051   2.997902806  -0.636344815  -0.000084935   0.000034760  -0.000052494
H       -0.844667411   2.996789241   0.636361246   0.000042420  -0.000002359   0.000053042
C       -1.481091852   0.556381159  -1.784689250  -0.000012728   0.000014372  -0.000014975
H        0.056361818   2.091058704  -1.533833532   0.000083061   0.000017623   0.000024882
C       -1.480876737  -1.227987853   0.000730135  -0.000005558   0.000009738   0.000024338
H        0.056539566  -0.980028877   1.538274184   0.000088986  -0.000046963   0.000123139
C       -2.373731902  -0.336632198  -0.892376969  -0.000008397   0.000005927   0.000013101
H       -0.845165288  -1.884255813  -0.634910875   0.000025824   0.000023140  -0.000004696
H       -2.117961395  -1.883714663   0.632968024  -0.000082713   0.000041178  -0.000060066
H       -3.016434253  -0.977263064  -1.534884919  -0.000038142   0.000045231  -0.000010164
C       -3.265530425   0.555947655  -0.000100283  -0.000019347  -0.000000078  -0.000003343
H       -2.116312506   1.192124555  -2.441016807  -0.000027750   0.000046818  -0.000003560
H       -0.844844763  -0.079394262  -2.441637834   0.000036508  -0.000019475  -0.000024261
H       -3.923023617   1.192918757  -0.634152666  -0.000046787   0.000073292   0.000020578
H       -3.016641177   2.091247515   1.532280534  -0.000045039   0.000023917  -0.000076649
H       -3.921201310  -0.078745313   0.635014537   0.000013956   0.000002156   0.000008151
   26
# Step:     2   Energy:     -133.83444447   Kin. Energy:        0.07100627   Total Energy:     -133.76343820   (Ry)
C       -0.587050872   1.448282850  -0.893303641   0.000019760  -0.000009711  -0.000011861
C        0.302817688   0.554975416  -0.001365793  -0.000015832  -0.000021654  -0.000030346
C       -0.586433249  -0.337780372   0.893065220   0.000033486  -0.000021567   0.000006565
H        0.959130867  -0.074607359  -0.632373891  -0.000023792   0.000093458   0.000053315
H        0.962660568   1.190126358   0.635420868   0.000054597  -0.000013306   0.000014347
C       -1.480818939   0.556331502   1.784256247  -0.000002418   0.000008478   0.000000357
C       -2.373418436   1.447728372   0.892760464   0.000001365  -0.000022033  -0.000000210
H       -2.114050073  -0.078006582   2.438746900   0.000031864   0.000017942  -0.000048113
H       -0.842612500   1.190248162   2.440174558   0.000073833  -0.000010588  -0.000016408
C       -1.480657934   2.340608321   0.000732091   0.000001156   0.000009294   0.000016267
H       -2.119295929   2.998420167  -0.637126159  -0.000084669   0.000034586  -0.000052231
H       -0.844036335   2.996750755   0.637151711   0.000042191  -0.000002495   0.000052815
C       -1.481282721   0.556596705  -1.784913761  -0.000012726   0.000014371  -0.000014970
H        0.057603556   2.091319000  -1.533456472   0.000082878   0.000017445   0.000025051
C       -1.480960058  -1.227841644   0.001095109  -0.000005556   0.000009744   0.000024334
H        0.057869180  -0.980728236   1.540115872   0.000088763  -0.000046744   0.000122908
C       -2.373857952  -0.336543358  -0.892180616  -0.000008401   0.000005924   0.000013094
H       -0.844783011  -1.883905821  -0.634976432   0.000025601   0.000023268  -0.000004481
H       -2.119197502  -1.883094733   0.632063084  -0.000082510   0.000041280  -0.000060244
H       -3.017002525  -0.976581202  -1.535033622  -0.000037972   0.000045383  -0.000009998
C       -3.265820468   0.555946555  -0.000150460  -0.000019340  -0.000000075  -0.000003344
H       -2.116723892   1.192821918  -2.441067278  -0.000027536   0.000046602  -0.000003431
H       -0.844302583  -0.079681155  -2.441998414   0.000036270  -0.000019246  -0.000024116
H       -3.923722026   1.194012798  -0.633838989  -0.000046639   0.000073058   0.000020798
H       -3.017312919   2.091602431   1.531127494  -0.000044870   0.000023748  -0.000076797
H       -3.920989579  -0.078708650   0.635132435   0.000014064   0.000002349   0.000007956
   26
# Step:     3   Energy:     -133.83426807   Kin. Energy:        0.07083043   Total Energy:     -133.76343764   (Ry)
C       -0.586754417   1.448137429  -0.893481654   0.000019763  -0.000009700  -0.000011865
C        0.302580074   0.554650925  -0.001820568  -0.000015838  -0.000021641  -0.000030329
C       -0.585930812  -0.338104094   0.893164017   0.000033492  -0.000021576   0.000006579
H        0.958773754  -0.073204053  -0.631572576  -0.000023809   0.000093531   0.000053394
H        0.963474862   1.189921056   0.635630069   0.000054395  -0.000013557   0.000014084
C       -1.480854996   0.556458735   1.784261374  -0.000002409   0.000008481   0.000000347
C       -2.373398086   1.447398112   0.892757384   0.000001360  -0.000022023  -0.000000207
H       -2.113568691  -0.077734029   2.438023982   0.000032019   0.000018097  -0.000048171
H       -0.841510516   1.190084560   2.439925351   0.000073591  -0.000010800  -0.000016544
C       -1.480640667   2.340747712   0.000975911   0.000001153   0.000009293   0.000016259
H       -2.120558833   2.998934134  -0.637902631  -0.000084359   0.000034378  -0.000051927
H       -0.843409124   2.996709988   0.637938383   0.000041943  -0.000002642   0.000052571
C       -1.481473524   0.556812209  -1.785138222  -0.000012722   0.000014368  -0.000014966
H        0.058842190   2.091576330  -1.533076724   0.000082679   0.000017254   0.000025227
C       -1.481043324  -1.227695360   0.001459972  -0.000005553   0.000009750   0.000024328
H        0.059194494  -0.981423404   1.541952975   0.000088498  -0.000046484   0.000122626
C       -2.373984069  -0.336454538  -0.891984403  -0.000008406   0.000005922   0.000013086
H       -0.844404424  -1.883553810  -0.635038538   0.000025362   0.000023400  -0.000004255
H       -2.120430502  -1.882473545   0.631155807  -0.000082304   0.000041371  -0.000060407
H       -3.017568070  -0.975897168  -1.535179719  -0.000037794   0.000045530  -0.000009827
C       -3.266110395   0.555945541  -0.000200680  -0.000019332  -0.000000070  -0.000003347
H       -2.117131837   1.193515785  -2.441115681  -0.000027311   0.000046374  -0.000003296
H       -0.843764528  -0.079964161  -2.442356445   0.000036008  -0.000018997  -0.000023954
H       -3.924417811   1.195102840  -0.633521708  -0.000046473   0.000072803   0.000021032
H       -3.017981944   2.091954642   1.529972389  -0.000044692   0.000023571  -0.000076938
H       -3.920776437  -0.078669204   0.635247492   0.000014162   0.000002537   0.000007765
   26
# Step:     4   Energy:     -133.83405746   Kin. Energy:        0.07062019   Total Energy:     -133.76343727   (Ry)
C       -0.586457943   1.447992212  -0.893659731   0.000019764  -0.000009688  -0.000011870
C        0.302342382   0.554326752  -0.002274922  -0.000015844  -0.000021622  -0.000030304
C       -0.585428264  -0.338427991   0.893263098   0.000033500  -0.000021587   0.000006596
H        0.958417331  -0.071800833  -0.630771190  -0.000023785   0.000093551   0.000053423
H        0.964285408   1.189711550   0.635834777   0.000054161  -0.000013827   0.000013797
C       -1.480890832   0.556586025   1.784266330  -0.000002396   0.000008484   0.000000336
C       -2.373377834   1.447068044   0.892754339   0.000001353  -0.000022011  -0.000000204
H       -2.113085399  -0.077459561   2.437300749   0.000032156   0.000018234  -0.000048205
H       -0.840412542   1.189917684   2.439673959   0.000073332  -0.000011016  -0.000016687
C       -1.480623476   2.340887136   0.001219552   0.000001149   0.000009294   0.000016249
H       -2.121816117   2.999444188  -0.638673622  -0.000084006   0.000034134  -0.000051582
H       -0.842786063   2.996666782   0.638720999   0.000041676  -0.000002799   0.000052310
C       -1.481664237   0.557027658  -1.785362651  -0.000012717   0.000014365  -0.000014963
H        0.060077469   2.091830492  -1.532694175   0.000082464   0.000017050   0.000025410
C       -1.481126516  -1.227549010   0.001824685  -0.000005549   0.000009754   0.000024319
H        0.060514875  -0.982113783   1.543784760   0.000088190  -0.000046185   0.000122296
C       -2.374110251  -0.336365720  -0.891788355  -0.000008410   0.000005921   0.000013075
H       -0.844029751  -1.883199707  -0.635097046   0.000025109   0.000023537  -0.000004020
H       -2.121660362  -1.881851278   0.630246415  -0.000082095   0.000041448  -0.000060556
H       -3.018130763  -0.975211024  -1.535323125  -0.000037608   0.000045673  -0.000009650
C       -3.266400202   0.555944641  -0.000250956  -0.000019324  -0.000000064  -0.000003350
H       -2.117536197   1.194205991  -2.441161927  -0.000027077   0.000046136  -0.000003155
H       -0.843230970  -0.080242988  -2.442711676   0.000035720  -0.000018728  -0.000023775
H       -3.925110699   1.196188549  -0.633200624  -0.000046289   0.000072525   0.000021279
H       -3.018648132   2.092304029   1.528815315  -0.000044507   0.000023387  -0.000077073
H       -3.920562013  -0.078627049   0.635359759   0.000014252   0.000002720   0.000007577
   26
# Step:     5   Energy:     -133.83381284   Kin. Energy:        0.07037609   Total Energy:     -133.76343674   (Ry)
C       -0.586161462   1.447847234  -0.893837873   0.000019765  -0.000009673  -0.000011874
C        0.302104618   0.554002976  -0.002728751  -0.000015849  -0.000021598  -0.000030273
C       -0.584925596  -0.338752089   0.893362516   0.000033507  -0.000021600   0.000006617
H        0.958062257  -0.070398488  -0.629970486  -0.000023717   0.000093519   0.000053403
H        0.965091744   1.189497560   0.636034644   0.000053896  -0.000014117   0.000013486
C       -1.480926392   0.556713385   1.784271099  -0.000002380   0.000008488   0.000000324
C       -2.373357689   1.446738203   0.892751322   0.000001347  -0.000021997  -0.000000202
H       -2.112600475  -0.077183457   2.436577586   0.000032274   0.000018352  -0.000048213
H       -0.839318820   1.189747473   2.439420302   0.000073057  -0.000011236  -0.000016835
C       -1.480606378   2.341026626   0.001462970   0.000001143   0.000009297   0.000016235
H       -2.123067144   2.999949827  -0.639438528  -0.000083610   0.000033856  -0.000051197
H       -0.842167435   2.996620988   0.639499299   0.000041390  -0.000002967   0.000052031
C       -1.481854839   0.557243038  -1.785587068  -0.000012711   0.000014361  -0.000014962
H        0.061309157   2.092081297  -1.532308733   0.000082232   0.000016832   0.000025600
C       -1.481209615  -1.227402604   0.002189213  -0.000005543   0.000009759   0.000024308
H        0.061829705  -0.982798794   1.545610511   0.000087840  -0.000045846   0.000121918
C       -2.374236498  -0.336276890  -0.891592496  -0.000008414   0.000005922   0.000013064
H       -0.843659213  -1.882843455  -0.635151814   0.000024840   0.000023678  -0.000003776
H       -2.122887052  -1.881228126   0.629335134  -0.000081885   0.000041514  -0.000060689
H       -3.018690493  -0.974522845  -1.535463774  -0.000037414   0.000045811  -0.000009469
C       -3.266689888   0.555943885  -0.000301303  -0.000019316  -0.000000055  -0.000003354
H       -2.117936832   1.194892376  -2.441205940  -0.000026833   0.000045886  -0.000003009
H       -0.842702273  -0.080517349  -2.443063876   0.000035409  -0.000018440  -0.000023581
H       -3.925800434   1.197269603  -0.632875549  -0.000046087   0.000072225   0.000021539
H       -3.019311378   2.092650495   1.527656384  -0.000044314   0.000023195  -0.000077200
H       -3.920346451  -0.078582262   0.635469296   0.000014333   0.000002898   0.000007393
   26
# Step:     6   Energy:     -133.83353517   Kin. Energy:        0.07009874   Total Energy:     -133.76343642   (Ry)
C       -0.585864988   1.447702529  -0.894016078   0.000019765  -0.000009656  -0.000011878
C        0.301866784   0.553679676  -0.003181948  -0.000015853  -0.000021569  -0.000030234
C       -0.584422801  -0.339076412   0.893462324   0.000033515  -0.000021614   0.000006641
H        0.957709182  -0.068997809  -0.629171219  -0.000023605   0.000093434   0.000053332
H        0.965893398   1.189278802   0.636229311   0.000053600  -0.000014425   0.000013151
C       -1.480961620   0.556840831   1.784275663  -0.000002360   0.000008494   0.000000311
C       -2.373337657   1.446408617   0.892748322   0.000001339  -0.000021981  -0.000000201
H       -2.112114201  -0.076905997   2.435854869   0.000032373   0.000018452  -0.000048196
H       -0.838229600   1.189573865   2.439164285   0.000072765  -0.000011461  -0.000016989
C       -1.480589391   2.341166214   0.001706123   0.000001136   0.000009303   0.000016219
H       -2.124311284   3.000450548  -0.640196757  -0.000083172   0.000033545  -0.000050771
H       -0.841553521   2.996572451   0.640273028   0.000041085  -0.000003144   0.000051734
C       -1.482045308   0.557458336  -1.785811489  -0.000012702   0.000014356  -0.000014961
H        0.062537007   2.092328548  -1.531920291   0.000081985   0.000016602   0.000025796
C       -1.481292602  -1.227256152   0.002553519  -0.000005536   0.000009762   0.000024294
H        0.063138370  -0.983477860   1.547429515   0.000087450  -0.000045469   0.000121492
C       -2.374362808  -0.336188030  -0.891396850  -0.000008419   0.000005923   0.000013050
H       -0.843293032  -1.882484986  -0.635202701   0.000024557   0.000023824  -0.000003522
H       -2.124110540  -1.880604268   0.628422187  -0.000081673   0.000041567  -0.000060808
H       -3.019247139  -0.973832695  -1.535601583  -0.000037213   0.000045944  -0.000009282
C       -3.266979447   0.555943300  -0.000351734  -0.000019308  -0.000000045  -0.000003359
H       -2.118333600   1.195574782  -2.441247634  -0.000026580   0.000045626  -0.000002857
H       -0.842178801  -0.080786960  -2.443412803   0.000035072  -0.000018132  -0.000023371
H       -3.926486747   1.198345675  -0.632546293  -0.000045868   0.000071904   0.000021811
H       -3.019971559   2.092993920   1.526495694  -0.000044114   0.000022996  -0.000077321
H       -3.920129880  -0.078534919   0.635576160   0.000014404   0.000003071   0.000007213
   26
# Step:     7   Energy:     -133.83322475   Kin. Energy:        0.06978881   Total Energy:     -133.76343593   (Ry)
C       -0.585568533   1.447558130  -0.894194345   0.000019764  -0.000009637  -0.000011882
C        0.301628884   0.553356931  -0.003634408  -0.000015858  -0.000021535  -0.000030189
C       -0.583919869  -0.339400984   0.893562572   0.000033524  -0.000021630   0.000006669
H        0.957358781  -0.067599599  -0.628374154  -0.000023449   0.000093296   0.000053211
H        0.966689921   1.189055009   0.636418441   0.000053273  -0.000014752   0.000012793
C       -1.480996462   0.556968376   1.784280008  -0.000002336   0.000008500   0.000000297
C       -2.373317747   1.446079320   0.892745333   0.000001331  -0.000021963  -0.000000200
H       -2.111626860  -0.076627469   2.435132989   0.000032454   0.000018533  -0.000048153
H       -0.837145118   1.189396803   2.438905835   0.000072457  -0.000011689  -0.000017149
C       -1.480572532   2.341305933   0.001948968   0.000001128   0.000009310   0.000016200
H       -2.125547917   3.000945870  -0.640947725  -0.000082692   0.000033201  -0.000050307
H       -0.840944595   2.996521030   0.641041931   0.000040761  -0.000003332   0.000051421
C       -1.482235622   0.557673540  -1.786035932  -0.000012693   0.000014350  -0.000014962
H        0.063760788   2.092572061  -1.531528759   0.000081721   0.000016359   0.000025999
C       -1.481375460  -1.227109664   0.002917566  -0.000005528   0.000009765   0.000024278
H        0.064440273  -0.984150423   1.549241073   0.000087019  -0.000045054   0.000121019
C       -2.374489181  -0.336099124  -0.891201442  -0.000008423   0.000005926   0.000013035
H       -0.842931421  -1.882124249  -0.635249569   0.000024260   0.000023974  -0.000003258
H       -2.125330801  -1.879979899   0.627507802  -0.000081458   0.000041608  -0.000060911
H       -3.019800595  -0.973140654  -1.535736490  -0.000037003   0.000046073  -0.000009091
C       -3.267268876   0.555942914  -0.000402263  -0.000019300  -0.000000032  -0.000003365
H       -2.118726367   1.196253054  -2.441286939  -0.000026318   0.000045356  -0.000002700
H       -0.841660910  -0.081051543  -2.443758235   0.000034712  -0.000017806  -0.000023145
H       -3.927169388   1.199416447  -0.632212673  -0.000045632   0.000071561   0.000022096
H       -3.020628575   2.093334209   1.525333361  -0.000043907   0.000022790  -0.000077434
H       -3.919912445  -0.078485102   0.635680411   0.000014467   0.000003239   0.000007037
   26
# Step:     8   Energy:     -133.83288267   Kin. Energy:        0.06944704   Total Energy:     -133.76343563   (Ry)
C       -0.585272109   1.447414070  -0.894372672   0.000019763  -0.000009615  -0.000011886
C        0.301390919   0.553034822  -0.004086025  -0.000015862  -0.000021495  -0.000030136
C       -0.583416794  -0.339725827   0.893663310   0.000033534  -0.000021647   0.000006700
H        0.957011719  -0.066204655  -0.627580055  -0.000023249   0.000093105   0.000053039
H        0.967480850   1.188825910   0.636601686   0.000052915  -0.000015096   0.000012412
C       -1.481030863   0.557096034   1.784284116  -0.000002308   0.000008507   0.000000282
C       -2.373297965   1.445750341   0.892742346   0.000001323  -0.000021943  -0.000000199
H       -2.111138736  -0.076348156   2.434412325   0.000032515   0.000018595  -0.000048085
H       -0.836065621   1.189216230   2.438644862   0.000072133  -0.000011921  -0.000017314
C       -1.480555817   2.341445812   0.002191463   0.000001119   0.000009320   0.000016178
H       -2.126776433   3.001435309  -0.641690857  -0.000082172   0.000032825  -0.000049803
H       -0.840340930   2.996466577   0.641805762   0.000040420  -0.000003529   0.000051091
C       -1.482425761   0.557888635  -1.786260414  -0.000012682   0.000014343  -0.000014964
H        0.064980258   2.092811643  -1.531134038   0.000081442   0.000016103   0.000026208
C       -1.481458171  -1.226963149   0.003281319  -0.000005519   0.000009767   0.000024260
H        0.065734820  -0.984815928   1.551044491   0.000086548  -0.000044602   0.000120499
C       -2.374615616  -0.336010156  -0.891006294  -0.000008427   0.000005929   0.000013019
H       -0.842574598  -1.881761180  -0.635292282   0.000023948   0.000024127  -0.000002986
H       -2.126547804  -1.879355199   0.626592203  -0.000081242   0.000041636  -0.000060999
H       -3.020350741  -0.972446789  -1.535868413  -0.000036787   0.000046197  -0.000008894
C       -3.267558170   0.555942757  -0.000452903  -0.000019291  -0.000000018  -0.000003372
H       -2.119114997   1.196927036  -2.441323771  -0.000026047   0.000045075  -0.000002538
H       -0.841148955  -0.081310821  -2.444099937   0.000034328  -0.000017462  -0.000022904
H       -3.927848094   1.200481602  -0.631874507  -0.000045378   0.000071198   0.000022393
H       -3.021282305   2.093671247   1.524169484  -0.000043692   0.000022578  -0.000077540
H       -3.919694279  -0.078432888   0.635782110   0.000014520   0.000003401   0.000006865
   26
# Step:     9   Energy:     -133.83250939   Kin. Energy:        0.06907422   Total Energy:     -133.76343517   (Ry)
C       -0.584975729   1.447270384  -0.894551059   0.000019760  -0.000009592  -0.000011890
C        0.301152891   0.552713425  -0.004536694  -0.000015866  -0.000021450  -0.000030076
C       -0.582913571  -0.340050963   0.893764589   0.000033543  -0.000021666   0.000006734
H        0.956668685  -0.064813787  -0.626789698  -0.000023003   0.000092860   0.000052815
H        0.968265749   1.188591249   0.636778722   0.000052528  -0.000015459   0.000012009
C       -1.481064766   0.557223820   1.784287969  -0.000002277   0.000008515   0.000000265
C       -2.373278319   1.445421713   0.892739351   0.000001314  -0.000021920  -0.000000199
H       -2.110650118  -0.076068349   2.433693271   0.000032558   0.000018637  -0.000047991
H       -0.834991339   1.189032095   2.438381296   0.000071793  -0.000012157  -0.000017485
C       -1.480539264   2.341585881   0.002433565   0.000001109   0.000009332   0.000016153
H       -2.127996231   3.001918402  -0.642425588  -0.000081610   0.000032418  -0.000049262
H       -0.839742793   2.996408957   0.642564275   0.000040060  -0.000003736   0.000050745
C       -1.482615702   0.558103609  -1.786484951  -0.000012669   0.000014336  -0.000014967
H        0.066195192   2.093047117  -1.530736044   0.000081147   0.000015835   0.000026424
C       -1.481540717  -1.226816617   0.003644740  -0.000005509   0.000009768   0.000024239
H        0.067021437  -0.985473840   1.552839090   0.000086039  -0.000044114   0.000119934
C       -2.374742111  -0.335921108  -0.890811431  -0.000008431   0.000005934   0.000013000
H       -0.842222770  -1.881395734  -0.635330710   0.000023622   0.000024284  -0.000002705
H       -2.127761527  -1.878730364   0.625675619  -0.000081024   0.000041651  -0.000061073
H       -3.020897477  -0.971751183  -1.535997297  -0.000036563   0.000046316  -0.000008694
C       -3.267847326   0.555942854  -0.000503667  -0.000019282  -0.000000002  -0.000003380
H       -2.119499361   1.197596581  -2.441358067  -0.000025766   0.000044784  -0.000002371
H       -0.840643282  -0.081564527  -2.444437695   0.000033921  -0.000017099  -0.000022649
H       -3.928522626   1.201540828  -0.631531624  -0.000045108   0.000070813   0.000022702
H       -3.021932653   2.094004942   1.523004183  -0.000043469   0.000022358  -0.000077639
H       -3.919475528  -0.078378362   0.635881323   0.000014564   0.000003558   0.000006697
   26
# Step:    10   Energy:     -133.83210610   Kin. Energy:        0.06867122   Total Energy:     -133.76343489   (Ry)
C       -0.584679408   1.447127102  -0.894729504   0.000019757  -0.000009566  -0.000011894
C        0.300914796   0.552392820  -0.004986310  -0.000015871  -0.000021400  -0.000030010
C       -0.582410193  -0.340376413   0.893866456   0.000033553  -0.000021686   0.000006772
H        0.956330354  -0.063427798  -0.626003854  -0.000022712   0.000092562   0.000052540
H        0.969044168   1.188350770   0.636949215   0.000052111  -0.000015838   0.000011584
C       -1.481098117   0.557351749   1.784291550  -0.000002242   0.000008524   0.000000248
C       -2.373258817   1.445093466   0.892736340   0.000001305  -0.000021896  -0.000000200
H       -2.110161292  -0.075788336   2.432976206   0.000032581   0.000018661  -0.000047871
H       -0.833922514   1.188844344   2.438115053   0.000071437  -0.000012396  -0.000017660
C       -1.480522887   2.341726167   0.002675236   0.000001098   0.000009345   0.000016126
H       -2.129206719   3.002394686  -0.643151364  -0.000081010   0.000031979  -0.000048684
H       -0.839150448   2.996348029   0.643317229   0.000039683  -0.000003952   0.000050382
C       -1.482805424   0.558318449  -1.786709559  -0.000012655   0.000014327  -0.000014971
H        0.067405354   2.093278295  -1.530334683   0.000080837   0.000015555   0.000026645
C       -1.481623080  -1.226670075   0.004007795  -0.000005497   0.000009769   0.000024216
H        0.068299549  -0.986123626   1.554624194   0.000085491  -0.000043590   0.000119323
C       -2.374868665  -0.335831963  -0.890616876  -0.000008435   0.000005940   0.000012981
H       -0.841876149  -1.881027851  -0.635364722   0.000023282   0.000024444  -0.000002415
H       -2.128971942  -1.878105575   0.624758274  -0.000080805   0.000041654  -0.000061131
H       -3.021440685  -0.971053905  -1.536123063  -0.000036331   0.000046429  -0.000008488
C       -3.268136337   0.555943235  -0.000554568  -0.000019272   0.000000016  -0.000003389
H       -2.119879329   1.198261539  -2.441389747  -0.000025478   0.000044483  -0.000002199
H       -0.840144236  -0.081812395  -2.444771286   0.000033491  -0.000016719  -0.000022378
H       -3.929192726   1.202593814  -0.631183846  -0.000044821   0.000070407   0.000023022
H       -3.022579500   2.094335180   1.521837561  -0.000043240   0.000022131  -0.000077731
H       -3.919256327  -0.078321606   0.635978111   0.000014598   0.000003709   0.000006533
   26
# Step:    11   Energy:     -133.83167337   Kin. Energy:        0.06823895   Total Energy:     -133.76343442   (Ry)
C       -0.584383157   1.446984258  -0.894908004   0.000019752  -0.000009538  -0.000011898
C        0.300676636   0.552073085  -0.005434768  -0.000015875  -0.000021345  -0.000029936
C       -0.581906656  -0.340702197   0.893968960   0.000033564  -0.000021708   0.000006812
H        0.955997428  -0.062047503  -0.625223303  -0.000022375   0.000092209   0.000052213
H        0.969815684   1.188104232   0.637112853   0.000051664  -0.000016234   0.000011138
C       -1.481130861   0.557479833   1.784294842  -0.000002203   0.000008534   0.000000229
C       -2.373239465   1.444765632   0.892733304   0.000001295  -0.000021869  -0.000000202
H       -2.109672547  -0.075508411   2.432261528   0.000032586   0.000018665  -0.000047725
H       -0.832859372   1.188652932   2.437846068   0.000071066  -0.000012639  -0.000017841
C       -1.480506703   2.341866699   0.002916433   0.000001085   0.000009361   0.000016096
H       -2.130407314   3.002863717  -0.643867639  -0.000080369   0.000031510  -0.000048068
H       -0.838564157   2.996283665   0.644064387   0.000039288  -0.000004176   0.000050004
C       -1.482994906   0.558533142  -1.786934253  -0.000012640   0.000014318  -0.000014977
H        0.068610521   2.093505007  -1.529929877   0.000080511   0.000015263   0.000026872
C       -1.481705242  -1.226523533   0.004370447  -0.000005484   0.000009769   0.000024190
H        0.069568607  -0.986764774   1.556399148   0.000084906  -0.000043031   0.000118669
C       -2.374995277  -0.335742706  -0.890422652  -0.000008439   0.000005947   0.000012959
H       -0.841534935  -1.880657494  -0.635394193   0.000022928   0.000024608  -0.000002116
H       -2.130179027  -1.877481027   0.623840397  -0.000080583   0.000041645  -0.000061174
H       -3.021980268  -0.970355043  -1.536245658  -0.000036093   0.000046538  -0.000008279
C       -3.268425199   0.555943926  -0.000605619  -0.000019262   0.000000036  -0.000003398
H       -2.120254778   1.198921768  -2.441418751  -0.000025181   0.000044173  -0.000002023
H       -0.839652154  -0.082054164  -2.445100504   0.000033038  -0.000016321  -0.000022094
H       -3.929858161   1.203640257  -0.630831012  -0.000044518   0.000069981   0.000023354
H       -3.023222753   2.094661873   1.520669738  -0.000043003   0.000021898  -0.000077815
H       -3.919036825  -0.078262706   0.636072543   0.000014623   0.000003855   0.000006374
   26
# Step:    12   Energy:     -133.83121251   Kin. Energy:        0.06777839   Total Energy:     -133.76343413   (Ry)